 vasp.6.3.0 20Jan22 (build Mar 03 2022 12:53:00) gamma-only                     
  
 executed on             LinuxIFC date 2022.03.15  20:21:38
 running on  384 total cores
 distrk:  each k-point on  384 cores,    1 groups
 distr:  one band on NCORE=   1 cores,  384 groups


--------------------------------------------------------------------------------------------------------


 INCAR:
   ENCUT = 400
   SIGMA = 0.0001
   EDIFF = 1E-6
   LHFCALC = .TRUE.
   AEXX = 1.0
   ALGO = C

 POTCAR:    PAW Si_GW 04May2012                   
 -----------------------------------------------------------------------------
|                                                                             |
|           W    W    AA    RRRRR   N    N  II  N    N   GGGG   !!!           |
|           W    W   A  A   R    R  NN   N  II  NN   N  G    G  !!!           |
|           W    W  A    A  R    R  N N  N  II  N N  N  G       !!!           |
|           W WW W  AAAAAA  RRRRR   N  N N  II  N  N N  G  GGG   !            |
|           WW  WW  A    A  R   R   N   NN  II  N   NN  G    G                |
|           W    W  A    A  R    R  N    N  II  N    N   GGGG   !!!           |
|                                                                             |
|     For optimal performance we recommend to set                             |
|       NCORE = 2 up to number-of-cores-per-socket                            |
|     NCORE specifies how many cores store one orbital (NPAR=cpu/NCORE).      |
|     This setting can greatly improve the performance of VASP for DFT.       |
|     The default, NCORE=1 might be grossly inefficient on modern             |
|     multi-core architectures or massively parallel machines. Do your        |
|     own testing! More info at https://www.vasp.at/wiki/index.php/NCORE      |
|     Unfortunately you need to use the default for GW and RPA                |
|     calculations (for HF NCORE is supported but not extensively tested      |
|     yet).                                                                   |
|                                                                             |
 -----------------------------------------------------------------------------

 POTCAR:    PAW Si_GW 04May2012                   
   VRHFIN =Si: s2p2                                                                                 
   LEXCH  = PE                                                                                      
   EATOM  =   103.0669 eV,    7.5752 Ry                                                             
                                                                                                    
   TITEL  = PAW Si_GW 04May2012                                                                     
   LULTRA =        F    use ultrasoft PP ?                                                          
   IUNSCR =        1    unscreen: 0-lin 1-nonlin 2-no                                               
   RPACOR =    1.500    partial core radius                                                         
   POMASS =   28.085; ZVAL   =    4.000    mass and valenz                                          
   RCORE  =    1.900    outmost cutoff radius                                                       
   RWIGS  =    2.480; RWIGS  =    1.312    wigner-seitz radius (au A)                               
   ENMAX  =  245.345; ENMIN  =  184.009 eV                                                          
   ICORE  =        3    local potential                                                             
   LCOR   =        T    correct aug charges                                                         
   LPAW   =        T    paw PP                                                                      
   EAUG   =  412.952                                                                                
   DEXC   =    0.000                                                                                
   RMAX   =    1.950    core radius for proj-oper                                                   
   RAUG   =    1.300    factor for augmentation sphere                                              
   RDEP   =    1.993    radius for radial grids                                                     
   RDEPT  =    2.000    core radius for aug-charge                                                  
                                                                                                    
   Atomic configuration                                                                             
    7 entries                                                                                       
     n  l   j            E        occ.                                                              
     1  0  0.50     -1785.8828   2.0000                                                             
     2  0  0.50      -139.4969   2.0000                                                             
     2  1  1.50       -95.5546   6.0000                                                             
     3  0  0.50       -10.8127   2.0000                                                             
     3  1  0.50        -4.0811   2.0000                                                             
     3  2  1.50        -4.0817   0.0000                                                             
     4  3  2.50        -4.0817   0.0000                                                             
   Description                                                                                      
     l       E           TYP  RCUT    TYP  RCUT                                                     
     0    -10.8127223     23  1.900                                                                 
     0     95.2407820     23  1.900                                                                 
     1     -4.0811372     23  1.900                                                                 
     1     54.4233040     23  1.900                                                                 
     2     -8.1634956     23  1.900                                                                 
     2     81.6349560     23  1.900                                                                 
     3     27.2116520     23  1.900                                                                 
  local pseudopotential read in
  partial core-charges read in
  partial kinetic energy density read in
  kinetic energy density of atom read in
  atomic valenz-charges read in
  non local Contribution for L=           0  read in
    real space projection operators read in
  non local Contribution for L=           0  read in
    real space projection operators read in
  non local Contribution for L=           1  read in
    real space projection operators read in
  non local Contribution for L=           1  read in
    real space projection operators read in
  non local Contribution for L=           2  read in
    real space projection operators read in
  non local Contribution for L=           2  read in
    real space projection operators read in
    PAW grid and wavefunctions read in
 
   number of l-projection  operators is LMAX  =           6
   number of lm-projection operators is LMMAX =          18
 
  PAW Si_GW 04May2012                   :
 energy of atom  1       EATOM= -103.0669
 kinetic energy error for atom=    0.0012 (will be added to EATOM!!)
 
 
 POSCAR: cd:
  positions in direct lattice
  velocities in cartesian coordinates
 exchange correlation table for  LEXCH =        8
   RHO(1)=    0.500       N(1)  =     2000
   RHO(2)=  100.500       N(2)  =     4000
 


--------------------------------------------------------------------------------------------------------


 ion  position               nearest neighbor table
   1  0.000  0.000  0.000-   9 2.37  10 2.37  11 2.37  13 2.37
   2  0.500  0.000  0.000-   9 2.37  10 2.37  12 2.37  14 2.37
   3  0.000  0.500  0.000-   9 2.37  11 2.37  12 2.37  15 2.37
   4  0.500  0.500  0.000-  10 2.37  11 2.37  12 2.37  16 2.37
   5  0.000  0.000  0.500-   9 2.37  13 2.37  14 2.37  15 2.37
   6  0.500  0.000  0.500-  10 2.37  13 2.37  14 2.37  16 2.37
   7  0.000  0.500  0.500-  11 2.37  13 2.37  15 2.37  16 2.37
   8  0.500  0.500  0.500-  12 2.37  14 2.37  15 2.37  16 2.37
   9  0.125  0.125  0.125-   1 2.37   2 2.37   3 2.37   5 2.37
  10  0.625  0.125  0.125-   1 2.37   2 2.37   4 2.37   6 2.37
  11  0.125  0.625  0.125-   1 2.37   3 2.37   4 2.37   7 2.37
  12  0.625  0.625  0.125-   2 2.37   3 2.37   4 2.37   8 2.37
  13  0.125  0.125  0.625-   1 2.37   5 2.37   6 2.37   7 2.37
  14  0.625  0.125  0.625-   2 2.37   5 2.37   6 2.37   8 2.37
  15  0.125  0.625  0.625-   3 2.37   5 2.37   7 2.37   8 2.37
  16  0.625  0.625  0.625-   4 2.37   6 2.37   7 2.37   8 2.37
 
  LATTYP: Found a face centered cubic cell.
 ALAT       =    10.9394268000
  
  Lattice vectors:
  
 A1 = (   5.4697134000,   5.4697134000,   0.0000000000)
 A2 = (   0.0000000000,   5.4697134000,   5.4697134000)
 A3 = (   5.4697134000,   0.0000000000,   5.4697134000)


Analysis of symmetry for initial positions (statically):
=====================================================================
 Subroutine PRICEL returns following result:
 
  LATTYP: Found a face centered cubic cell.
 ALAT       =     5.4697134000
  
  Lattice vectors:
  
 A1 = (   2.7348567000,   2.7348567000,   0.0000000000)
 A2 = (   0.0000000000,   2.7348567000,   2.7348567000)
 A3 = (   2.7348567000,   0.0000000000,   2.7348567000)
 
   8 primitive cells build up your supercell.
 

 Routine SETGRP: Setting up the symmetry group for a 
 face centered cubic supercell.


 Subroutine GETGRP returns: Found 48 space group operations
 (whereof 24 operations were pure point group operations)
 out of a pool of 48 trial point group operations.


The static configuration has the point symmetry T_d .
 The point group associated with its full space group is O_h .


Analysis of symmetry for dynamics (positions and initial velocities):
=====================================================================
 Subroutine PRICEL returns following result:
 
  LATTYP: Found a face centered cubic cell.
 ALAT       =     5.4697134000
  
  Lattice vectors:
  
 A1 = (   2.7348567000,   2.7348567000,   0.0000000000)
 A2 = (   0.0000000000,   2.7348567000,   2.7348567000)
 A3 = (   2.7348567000,   0.0000000000,   2.7348567000)
 
   8 primitive cells build up your supercell.
 

 Routine SETGRP: Setting up the symmetry group for a 
 face centered cubic supercell.


 Subroutine GETGRP returns: Found 48 space group operations
 (whereof 24 operations were pure point group operations)
 out of a pool of 48 trial point group operations.


The dynamic configuration has the point symmetry T_d .
 The point group associated with its full space group is O_h .


 Subroutine INISYM returns: Found 48 space group operations
 (whereof 24 operations are pure point group operations),
 and found     8 'primitive' translations


----------------------------------------------------------------------------------------

                                     Primitive cell                                     

  volume of cell :      40.9104

  direct lattice vectors                    reciprocal lattice vectors
     2.734856700  2.734856700  0.000000000     0.182824936  0.182824936 -0.182824936
     0.000000000  2.734856700  2.734856700    -0.182824936  0.182824936  0.182824936
     2.734856700  0.000000000  2.734856700     0.182824936 -0.182824936  0.182824936

  length of vectors
     3.867671436  3.867671436  3.867671436     0.316662077  0.316662077  0.316662077

  position of ions in fractional coordinates (direct lattice)
     0.000000000  0.000000000  0.000000000
     0.250000000  0.250000000  0.250000000

  ion indices of the primitive-cell ions
   primitive index   ion index
                 1           1
                 2           9

----------------------------------------------------------------------------------------

 
 
 KPOINTS: Automatic mesh                          

Automatic generation of k-mesh.
 Grid dimensions read from file:
 generate k-points for:    1    1    1

 Generating k-lattice:

  Cartesian coordinates                     Fractional coordinates (reciprocal lattice)
     0.091412468  0.091412468 -0.091412468     1.000000000  0.000000000  0.000000000
    -0.091412468  0.091412468  0.091412468     0.000000000  1.000000000 -0.000000000
     0.091412468 -0.091412468  0.091412468    -0.000000000 -0.000000000  1.000000000

  Length of vectors
     0.158331039  0.158331039  0.158331039

  Shift w.r.t. Gamma in fractional coordinates (k-lattice)
     0.000000000  0.000000000  0.000000000

 
 Subroutine IBZKPT returns following result:
 ===========================================
 
 Found      1 irreducible k-points:
 
 Following reciprocal coordinates:
            Coordinates               Weight
  0.000000  0.000000  0.000000      1.000000
 
 Following cartesian coordinates:
            Coordinates               Weight
  0.000000  0.000000  0.000000      1.000000
 
 
 Subroutine IBZKPT_HF returns following result:
 ==============================================
 
 Found      1 k-points in 1st BZ
 the following      1 k-points will be used (e.g. in the exchange kernel)
 Following reciprocal coordinates:   # in IRBZ
  0.000000  0.000000  0.000000    1.00000000   1 t-inv F


--------------------------------------------------------------------------------------------------------




 Dimension of arrays:
   k-points           NKPTS =      1   k-points in BZ     NKDIM =      1   number of bands    NBANDS=    384
   number of dos      NEDOS =    301   number of ions     NIONS =     16
   non local maximal  LDIM  =      6   non local SUM 2l+1 LMDIM =     18
   total plane-waves  NPLWV =  64000
   max r-space proj   IRMAX =      1   max aug-charges    IRDMAX=   9797
   dimension x,y,z NGX =    40 NGY =   40 NGZ =   40
   dimension x,y,z NGXF=    80 NGYF=   80 NGZF=   80
   support grid    NGXF=    80 NGYF=   80 NGZF=   80
   ions per type =              16
   NGX,Y,Z   is equivalent  to a cutoff of   8.60,  8.60,  8.60 a.u.
   NGXF,Y,Z  is equivalent  to a cutoff of  17.19, 17.19, 17.19 a.u.

 SYSTEM =  unknown system                          
 POSCAR =  cd:                                     

 Startparameter for this run:
   NWRITE =      2    write-flag & timer
   PREC   = normal    normal or accurate (medium, high low for compatibility)
   ISTART =      1    job   : 0-new  1-cont  2-samecut
   ICHARG =      0    charge: 1-file 2-atom 10-const
   ISPIN  =      1    spin polarized calculation?
   LNONCOLLINEAR =      F non collinear calculations
   LSORBIT =      F    spin-orbit coupling
   INIWAV =      1    electr: 0-lowe 1-rand  2-diag
   LASPH  =      F    aspherical Exc in radial PAW
 Electronic Relaxation 1
   ENCUT  =  400.0 eV  29.40 Ry    5.42 a.u.  12.61 12.61 12.61*2*pi/ulx,y,z
   ENINI  =  400.0     initial cutoff
   ENAUG  =  413.0 eV  augmentation charge cutoff
   NELM   =     60;   NELMIN=  2; NELMDL=  0     # of ELM steps 
   EDIFF  = 0.1E-05   stopping-criterion for ELM
   LREAL  =      F    real-space projection
   NLSPLINE    = F    spline interpolate recip. space projectors
   LCOMPAT=      F    compatible to vasp.4.4
   GGA_COMPAT  = T    GGA compatible to vasp.4.4-vasp.4.6
   LMAXPAW     = -100 max onsite density
   LMAXMIX     =    2 max onsite mixed and CHGCAR
   VOSKOWN=      0    Vosko Wilk Nusair interpolation
   ROPT   =    0.00000
 Ionic relaxation
   EDIFFG = 0.1E-04   stopping-criterion for IOM
   NSW    =      0    number of steps for IOM
   NBLOCK =      1;   KBLOCK =      1    inner block; outer block 
   IBRION =     -1    ionic relax: 0-MD 1-quasi-New 2-CG
   NFREE  =      0    steps in history (QN), initial steepest desc. (CG)
   ISIF   =      0    stress and relaxation
   IWAVPR =     10    prediction:  0-non 1-charg 2-wave 3-comb
   ISYM   =      3    0-nonsym 1-usesym 2-fastsym
   LCORR  =      T    Harris-Foulkes like correction to forces

   POTIM  = 0.5000    time-step for ionic-motion
   TEIN   =    0.0    initial temperature
   TEBEG  =    0.0;   TEEND  =   0.0 temperature during run
   SMASS  =  -3.00    Nose mass-parameter (am)
   estimated Nose-frequenzy (Omega)   =  0.10E-29 period in steps = 0.13E+47 mass=  -0.137E-26a.u.
   SCALEE = 1.0000    scale energy and forces
   NPACO  =    256;   APACO  = 10.0  distance and # of slots for P.C.
   PSTRESS=    0.0 pullay stress

  Mass of Ions in am
   POMASS =  28.09
  Ionic Valenz
   ZVAL   =   4.00
  Atomic Wigner-Seitz radii
   RWIGS  =  -1.00
  virtual crystal weights 
   VCA    =   1.00
   NELECT =      64.0000    total number of electrons
   NUPDOWN=      -1.0000    fix difference up-down

 DOS related values:
   EMIN   =  10.00;   EMAX   =-10.00  energy-range for DOS
   EFERMI =   0.00
   ISMEAR =     1;   SIGMA  =   0.00  broadening in eV -4-tet -1-fermi 0-gaus

 Electronic relaxation 2 (details)
   IALGO  =     58    algorithm
   LDIAG  =      T    sub-space diagonalisation (order eigenvalues)
   LSUBROT=      F    optimize rotation matrix (better conditioning)
   TURBO    =      0    0=normal 1=particle mesh
   IRESTART =      0    0=no restart 2=restart with 2 vectors
   NREBOOT  =      0    no. of reboots
   NMIN     =      0    reboot dimension
   EREF     =   0.00    reference energy to select bands
   IMIX   =      4    mixing-type and parameters
     AMIX     =   0.40;   BMIX     =  1.00
     AMIX_MAG =   1.60;   BMIX_MAG =  1.00
     AMIN     =   0.10
     WC   =   100.;   INIMIX=   1;  MIXPRE=   1;  MAXMIX= -45

 Intra band minimization:
   WEIMIN = 0.0000     energy-eigenvalue tresh-hold
   EBREAK =  0.65E-09  absolut break condition
   DEPER  =   0.30     relativ break condition  

   TIME   =   0.40     timestep for ELM

  volume/ion in A,a.u.               =      20.46       138.04
  Fermi-wavevector in a.u.,A,eV,Ry     =   0.950226  1.795667 12.285102  0.902929
  Thomas-Fermi vector in A             =   2.078583
 
 Write flags
   LWAVE        =      T    write WAVECAR
   LDOWNSAMPLE  =      F    k-point downsampling of WAVECAR
   LCHARG       =      T    write CHGCAR
   LVTOT        =      F    write LOCPOT, total local potential
   LVHAR        =      F    write LOCPOT, Hartree potential only
   LELF         =      F    write electronic localiz. function (ELF)
   LORBIT       =      0    0 simple, 1 ext, 2 COOP (PROOUT), +10 PAW based schemes


 Dipole corrections
   LMONO  =      F    monopole corrections only (constant potential shift)
   LDIPOL =      F    correct potential (dipole corrections)
   IDIPOL =      0    1-x, 2-y, 3-z, 4-all directions 
   EPSILON=  1.0000000 bulk dielectric constant

 Exchange correlation treatment:
   GGA     =    --    GGA type
   LEXCH   =     8    internal setting for exchange type
   LIBXC   =     F    Libxc                    
   VOSKOWN =     0    Vosko Wilk Nusair interpolation
   EXXOEP  =     0    0=HF, 1=EXX-LHF (local Hartree Fock) 2=EXX OEP
   LHFCALC =     T    Hartree Fock is set to
   LSYMGRAD=     F    symmetrize gradient (conserves proper symmetry)
   PRECFOCK=normal    Normal, Fast or Accurate (Low or Medium for compatibility)
   LRHFCALC=     F    long range Hartree Fock
   LRSCOR  =     F    long range correlation only (use DFT for short range part)
   LTHOMAS =     F    Thomas Fermi screening in HF
   LMODELHF=     F    short range full HF, long range fraction AEXX
   LFOCKACE=     T    use Adeptively-Compressed-Exchange operator
   ENCUT4O =  -1.0   cutoff for four orbital integrals eV
   LMAXFOCK=     4    L truncation for augmentation on plane wave grid
   LMAXFOCKAE=  -1    L truncation for all-electron charge restoration on plane wave grid
   NMAXFOCKAE=   1    number of basis functions for all-electron charge restoration
   LFOCKAEDFT=     F  apply the AE augmentation even for DFT
   NKREDX  =     1    reduce k-point grid by
   NKREDY  =     1    reduce k-point grid by
   NKREDZ  =     1    reduce k-point grid by
   SHIFTRED=     F    shift reduced grid of Gamma
   HFKIDENT=     F    idential grid for each k-point
   ODDONLY =     F    use only odd q-grid points
   EVENONLY=     F    use only even q-grid points
   HFALPHA =   -1.0000 decay constant for conv. correction
   MCALPHA =    0.0000 extent of test-charge in conv. correction in multipole expansion
   AEXX    =    1.0000 exact exchange contribution
   HFSCREEN=    0.0000 screening length (either q_TF or 0.3 A-1)
   HFSCREENC=   0.0000 screening length for correlation (either q_TF or 0.3 A-1)
   HFRCUT  =    0.0000 spherical cutoff for potential kernel
   ALDAX   =    0.0000 LDA exchange part
   AGGAX   =    0.0000 GGA exchange part
   ALDAC   =    0.0000 LDA correlation
   AGGAC   =    0.0000 GGA correlation
   ENCUTFOCK=  -1.0 apply spherical cutoff to Coloumb kernel
   NBANDSGWLOW=     1    first orbital included in HF term
   NBLOCK_FOCK=    64    blocking factor in FOCK_ACC

 Linear response parameters
   LEPSILON=     F    determine dielectric tensor
   LRPA    =     F    only Hartree local field effects (RPA)
   LNABLA  =     F    use nabla operator in PAW spheres
   LVEL    =     F    velocity operator in full k-point grid
   CSHIFT  =0.1000    complex shift for real part using Kramers Kronig
   OMEGAMAX=  -1.0    maximum frequency
   DEG_THRESHOLD= 0.2000000E-02 threshold for treating states as degnerate
   RTIME   =   -0.100 relaxation time in fs
  (WPLASMAI=    0.000 imaginary part of plasma frequency in eV, 0.658/RTIME)
   DFIELD  = 0.0000000 0.0000000 0.0000000 field for delta impulse in time
 
  Optional k-point grid parameters
   LKPOINTS_OPT  =     F    use optional k-point grid
   KPOINTS_OPT_MODE=     1    mode for optional k-point grid
 
 Orbital magnetization related:
   ORBITALMAG=     F  switch on orbital magnetization
   LCHIMAG   =     F  perturbation theory with respect to B field
   DQ        =  0.001000  dq finite difference perturbation B field
   LLRAUG    =     F  two centre corrections for induced B field



--------------------------------------------------------------------------------------------------------


 Static calculation
 charge density and potential will be updated during run
 non-spin polarized calculation
 Conjugate gradient for all bands (Freysoldt, et al. PRB 79, 241103 (2009))
 preconditioned conjugated gradient                                        
 perform sub-space diagonalisation
    before iterative eigenvector-optimisation
 modified Broyden-mixing scheme, WC =      100.0
 initial mixing is a Kerker type mixing with AMIX =  0.4000 and BMIX =      1.0000
 Hartree-type preconditioning will be used
 using additional bands          352
 reciprocal scheme for non local part
 use partial core corrections
 no Harris-corrections to forces 
 use gradient corrections 
 use of overlap-Matrix (Vanderbilt PP)
 Methfessel and Paxton  Order N= 1 SIGMA  =   0.00


--------------------------------------------------------------------------------------------------------


  energy-cutoff  :      400.00
  volume of cell :      327.28
      direct lattice vectors                 reciprocal lattice vectors
     5.469713400  5.469713400  0.000000000     0.091412468  0.091412468 -0.091412468
     0.000000000  5.469713400  5.469713400    -0.091412468  0.091412468  0.091412468
     5.469713400  0.000000000  5.469713400     0.091412468 -0.091412468  0.091412468

  length of vectors
     7.735342873  7.735342873  7.735342873     0.158331039  0.158331039  0.158331039


 
 old parameters found on file WAVECAR:
  energy-cutoff  :      400.00
  volume of cell :      327.28
      direct lattice vectors                 reciprocal lattice vectors
     5.469713400  5.469713400  0.000000000     0.091412468  0.091412468 -0.091412468
     0.000000000  5.469713400  5.469713400    -0.091412468  0.091412468  0.091412468
     5.469713400  0.000000000  5.469713400     0.091412468 -0.091412468  0.091412468

  length of vectors

 
 k-points in units of 2pi/SCALE and weight: Automatic mesh                          
   0.00000000  0.00000000  0.00000000       1.000
 
 k-points in reciprocal lattice and weights: Automatic mesh                          
   0.00000000  0.00000000  0.00000000       1.000
 
 position of ions in fractional coordinates (direct lattice) 
   0.00000000  0.00000000  0.00000000
   0.50000000  0.00000000  0.00000000
   0.00000000  0.50000000  0.00000000
   0.50000000  0.50000000  0.00000000
   0.00000000  0.00000000  0.50000000
   0.50000000  0.00000000  0.50000000
   0.00000000  0.50000000  0.50000000
   0.50000000  0.50000000  0.50000000
   0.12500000  0.12500000  0.12500000
   0.62500000  0.12500000  0.12500000
   0.12500000  0.62500000  0.12500000
   0.62500000  0.62500000  0.12500000
   0.12500000  0.12500000  0.62500000
   0.62500000  0.12500000  0.62500000
   0.12500000  0.62500000  0.62500000
   0.62500000  0.62500000  0.62500000
 
 position of ions in cartesian coordinates  (Angst):
   0.00000000  0.00000000  0.00000000
   2.73485670  2.73485670  0.00000000
   0.00000000  2.73485670  2.73485670
   2.73485670  5.46971340  2.73485670
   2.73485670  0.00000000  2.73485670
   5.46971340  2.73485670  2.73485670
   2.73485670  2.73485670  5.46971340
   5.46971340  5.46971340  5.46971340
   1.36742835  1.36742835  1.36742835
   4.10228505  4.10228505  1.36742835
   1.36742835  4.10228505  4.10228505
   4.10228505  6.83714175  4.10228505
   4.10228505  1.36742835  4.10228505
   6.83714175  4.10228505  4.10228505
   4.10228505  4.10228505  6.83714175
   6.83714175  6.83714175  6.83714175
 


--------------------------------------------------------------------------------------------------------


 use serial FFT for orbitals x direction half grid
 k-point   1 :   0.0000 0.0000 0.0000  plane waves:    2981

 maximum and minimum number of plane-waves per node :      2981     2981

 maximum number of plane-waves:      2981
 maximum index in each direction: 
   IXMAX=   12   IYMAX=   12   IZMAX=   12
   IXMIN=    0   IYMIN=  -10   IZMIN=  -10


 serial   3D FFT for wavefunctions
 parallel 3D FFT for charge:
    minimum data exchange during FFTs selected (reduces bandwidth)

 
 Radii for the augmentation spheres in the non-local exchange
 for species   1 augmentation radius   1.405 (default was   1.124)
       energy cutoff for augmentation   1600.0
 Maximum index for augmentation-charges in exchange         2243
  SETUP_FOCK is finished

 total amount of memory used by VASP MPI-rank0    42922. kBytes
=======================================================================

   base      :      30000. kBytes
   nonl-proj :       1228. kBytes
   fftplans  :        558. kBytes
   grid      :       2897. kBytes
   one-center:        124. kBytes
   HF        :         64. kBytes
   nonlr-proj:       7895. kBytes
   wavefun   :        156. kBytes
 
     INWAV:  cpu time      0.2233: real time      0.2241
 Broyden mixing: mesh for mixing (old mesh)
   NGX = 25   NGY = 25   NGZ = 25
  (NGX  = 80   NGY  = 80   NGZ  = 80)
  gives a total of  15625 points

 charge density for first step will be calculated from the start-wavefunctions


--------------------------------------------------------------------------------------------------------


 Maximum index for augmentation-charges          499 (set IRDMAX)


--------------------------------------------------------------------------------------------------------


 initial charge from wavefunction
    FEWALD:  cpu time      0.0072: real time      0.0073


--------------------------------------- Iteration      1(   1)  ---------------------------------------


    POTLOK:  cpu time      0.2082: real time      0.2092
    SETDIJ:  cpu time      0.0137: real time      0.0140
    TRIAL :  cpu time      6.4573: real time      6.4765
    CORREC:  cpu time      5.7608: real time      5.7765
    CHARGE:  cpu time      0.0635: real time      0.0637
    --------------------------------------------
      LOOP:  cpu time     12.5047: real time     12.5415

 eigenvalue-minimisations  :     0
 total energy-change (2. order) :-0.1393970E+03  (-0.8745120E+00)
 number of electron      63.9999974 magnetization 
 augmentation part       -3.5661702 magnetization 

 Free energy of the ion-electron system (eV)
  ---------------------------------------------------
  alpha Z        PSCENC =        47.65718222
  Ewald energy   TEWEN  =     -1815.23227814
  -Hartree energ DENC   =      -139.68976416
  -exchange      EXHF   =       477.29621960
  -V(xc)+E(xc)   XCENC  =         0.00000000
  PAW double counting   =      2031.97834136    -2036.36539213
  entropy T*S    EENTRO =         0.00000000
  eigenvalues    EBANDS =      -210.16937845
  atomic energy  EATOM  =      1505.12811154
  ---------------------------------------------------
  free energy    TOTEN  =      -139.39695815 eV

  energy without entropy =     -139.39695815  energy(sigma->0) =     -139.39695815
  exchange ACFDT corr.  =         0.00000000  see jH, gK, PRB 81, 115126


--------------------------------------------------------------------------------------------------------




--------------------------------------- Iteration      1(   2)  ---------------------------------------


    POTLOK:  cpu time      0.2060: real time      0.2067
    SETDIJ:  cpu time      0.0158: real time      0.0158
    TRIAL :  cpu time      5.5822: real time      5.5970
    CORREC:  cpu time      5.5462: real time      5.5612
    CHARGE:  cpu time      0.0242: real time      0.0242
    --------------------------------------------
      LOOP:  cpu time     11.3954: real time     11.4273

 eigenvalue-minimisations  :     0
 total energy-change (2. order) :-0.8694347E+00  (-0.1593782E+01)
 number of electron      63.9999975 magnetization 
 augmentation part       -3.4313050 magnetization 

 Free energy of the ion-electron system (eV)
  ---------------------------------------------------
  alpha Z        PSCENC =        47.65718222
  Ewald energy   TEWEN  =     -1815.23227814
  -Hartree energ DENC   =      -140.20780860
  -exchange      EXHF   =       478.43984004
  -V(xc)+E(xc)   XCENC  =         0.00000000
  PAW double counting   =      2128.11390950    -2132.29088503
  entropy T*S    EENTRO =         0.00000000
  eigenvalues    EBANDS =      -211.87446434
  atomic energy  EATOM  =      1505.12811154
  ---------------------------------------------------
  free energy    TOTEN  =      -140.26639280 eV

  energy without entropy =     -140.26639280  energy(sigma->0) =     -140.26639280
  exchange ACFDT corr.  =         0.00000000  see jH, gK, PRB 81, 115126


--------------------------------------------------------------------------------------------------------




--------------------------------------- Iteration      1(   3)  ---------------------------------------


    POTLOK:  cpu time      0.1924: real time      0.1929
    SETDIJ:  cpu time      0.0155: real time      0.0155
    TRIAL :  cpu time      5.4880: real time      5.5029
    CORREC:  cpu time      5.6648: real time      5.6797
    CHARGE:  cpu time      0.1025: real time      0.1028
    --------------------------------------------
      LOOP:  cpu time     11.4709: real time     11.5016

 eigenvalue-minimisations  :     0
 total energy-change (2. order) :-0.1787226E+01  (-0.1888151E+00)
 number of electron      63.9999975 magnetization 
 augmentation part       -3.3865589 magnetization 

 Free energy of the ion-electron system (eV)
  ---------------------------------------------------
  alpha Z        PSCENC =        47.65718222
  Ewald energy   TEWEN  =     -1815.23227814
  -Hartree energ DENC   =      -141.46733216
  -exchange      EXHF   =       481.23313520
  -V(xc)+E(xc)   XCENC  =         0.00000000
  PAW double counting   =      2235.16119088    -2239.12430721
  entropy T*S    EENTRO =         0.00000000
  eigenvalues    EBANDS =      -215.40932143
  atomic energy  EATOM  =      1505.12811154
  ---------------------------------------------------
  free energy    TOTEN  =      -142.05361910 eV

  energy without entropy =     -142.05361910  energy(sigma->0) =     -142.05361910
  exchange ACFDT corr.  =         0.00000000  see jH, gK, PRB 81, 115126


--------------------------------------------------------------------------------------------------------




--------------------------------------- Iteration      1(   4)  ---------------------------------------


    POTLOK:  cpu time      0.1921: real time      0.1928
    SETDIJ:  cpu time      0.0157: real time      0.0157
    TRIAL :  cpu time      5.8388: real time      5.8541
    CORREC:  cpu time      5.7751: real time      5.7905
    CHARGE:  cpu time      0.0626: real time      0.0628
    --------------------------------------------
      LOOP:  cpu time     11.8952: real time     11.9305

 eigenvalue-minimisations  :     0
 total energy-change (2. order) :-0.1929211E+00  (-0.3319010E+00)
 number of electron      63.9999976 magnetization 
 augmentation part       -3.3636040 magnetization 

 Free energy of the ion-electron system (eV)
  ---------------------------------------------------
  alpha Z        PSCENC =        47.65718222
  Ewald energy   TEWEN  =     -1815.23227814
  -Hartree energ DENC   =      -141.92388208
  -exchange      EXHF   =       481.94458481
  -V(xc)+E(xc)   XCENC  =         0.00000000
  PAW double counting   =      2213.49684093    -2217.47962446
  entropy T*S    EENTRO =         0.00000000
  eigenvalues    EBANDS =      -215.83747506
  atomic energy  EATOM  =      1505.12811154
  ---------------------------------------------------
  free energy    TOTEN  =      -142.24654024 eV

  energy without entropy =     -142.24654024  energy(sigma->0) =     -142.24654024
  exchange ACFDT corr.  =         0.00000000  see jH, gK, PRB 81, 115126


--------------------------------------------------------------------------------------------------------




--------------------------------------- Iteration      1(   5)  ---------------------------------------


    POTLOK:  cpu time      0.2006: real time      0.2013
    SETDIJ:  cpu time      0.0152: real time      0.0153
    TRIAL :  cpu time      5.7817: real time      5.7971
    CORREC:  cpu time      5.8098: real time      5.8254
    CHARGE:  cpu time      0.1023: real time      0.1026
    --------------------------------------------
      LOOP:  cpu time     11.9149: real time     11.9469

 eigenvalue-minimisations  :     0
 total energy-change (2. order) :-0.3614445E+00  (-0.1899658E-01)
 number of electron      63.9999976 magnetization 
 augmentation part       -3.3725279 magnetization 

 Free energy of the ion-electron system (eV)
  ---------------------------------------------------
  alpha Z        PSCENC =        47.65718222
  Ewald energy   TEWEN  =     -1815.23227814
  -Hartree energ DENC   =      -143.00484049
  -exchange      EXHF   =       483.78380923
  -V(xc)+E(xc)   XCENC  =         0.00000000
  PAW double counting   =      2218.60886632    -2222.50352229
  entropy T*S    EENTRO =         0.00000000
  eigenvalues    EBANDS =      -217.04531313
  atomic energy  EATOM  =      1505.12811154
  ---------------------------------------------------
  free energy    TOTEN  =      -142.60798473 eV

  energy without entropy =     -142.60798473  energy(sigma->0) =     -142.60798473
  exchange ACFDT corr.  =         0.00000000  see jH, gK, PRB 81, 115126


--------------------------------------------------------------------------------------------------------




--------------------------------------- Iteration      1(   6)  ---------------------------------------


    POTLOK:  cpu time      0.1896: real time      0.1900
    SETDIJ:  cpu time      0.0158: real time      0.0159
    TRIAL :  cpu time      5.5297: real time      5.5446
    CORREC:  cpu time      5.7291: real time      5.7446
    CHARGE:  cpu time      0.0239: real time      0.0239
    --------------------------------------------
      LOOP:  cpu time     11.4958: real time     11.5268

 eigenvalue-minimisations  :     0
 total energy-change (2. order) :-0.1903467E-01  (-0.2647578E-01)
 number of electron      63.9999976 magnetization 
 augmentation part       -3.3748911 magnetization 

 Free energy of the ion-electron system (eV)
  ---------------------------------------------------
  alpha Z        PSCENC =        47.65718222
  Ewald energy   TEWEN  =     -1815.23227814
  -Hartree energ DENC   =      -143.26518754
  -exchange      EXHF   =       484.03237313
  -V(xc)+E(xc)   XCENC  =         0.00000000
  PAW double counting   =      2214.53751333    -2218.42108293
  entropy T*S    EENTRO =         0.00000000
  eigenvalues    EBANDS =      -217.06365102
  atomic energy  EATOM  =      1505.12811154
  ---------------------------------------------------
  free energy    TOTEN  =      -142.62701940 eV

  energy without entropy =     -142.62701940  energy(sigma->0) =     -142.62701940
  exchange ACFDT corr.  =         0.00000000  see jH, gK, PRB 81, 115126


--------------------------------------------------------------------------------------------------------




--------------------------------------- Iteration      1(   7)  ---------------------------------------


    POTLOK:  cpu time      0.1893: real time      0.1898
    SETDIJ:  cpu time      0.0152: real time      0.0152
    TRIAL :  cpu time      5.4139: real time      5.4492
    CORREC:  cpu time      5.6802: real time      5.6955
    CHARGE:  cpu time      0.0635: real time      0.0637
    --------------------------------------------
      LOOP:  cpu time     11.3697: real time     11.4210

 eigenvalue-minimisations  :     0
 total energy-change (2. order) :-0.2669135E-01  (-0.2905569E-02)
 number of electron      63.9999976 magnetization 
 augmentation part       -3.3719223 magnetization 

 Free energy of the ion-electron system (eV)
  ---------------------------------------------------
  alpha Z        PSCENC =        47.65718222
  Ewald energy   TEWEN  =     -1815.23227814
  -Hartree energ DENC   =      -143.99081578
  -exchange      EXHF   =       484.57285839
  -V(xc)+E(xc)   XCENC  =         0.00000000
  PAW double counting   =      2180.52500347    -2184.43286478
  entropy T*S    EENTRO =         0.00000000
  eigenvalues    EBANDS =      -216.88090769
  atomic energy  EATOM  =      1505.12811154
  ---------------------------------------------------
  free energy    TOTEN  =      -142.65371076 eV

  energy without entropy =     -142.65371076  energy(sigma->0) =     -142.65371076
  exchange ACFDT corr.  =         0.00000000  see jH, gK, PRB 81, 115126


--------------------------------------------------------------------------------------------------------




--------------------------------------- Iteration      1(   8)  ---------------------------------------


    POTLOK:  cpu time      0.1878: real time      0.1883
    SETDIJ:  cpu time      0.0158: real time      0.0159
    TRIAL :  cpu time      5.7188: real time      5.7342
    CORREC:  cpu time      5.8389: real time      5.8547
    CHARGE:  cpu time      0.0237: real time      0.0237
    --------------------------------------------
      LOOP:  cpu time     11.7926: real time     11.8243

 eigenvalue-minimisations  :     0
 total energy-change (2. order) :-0.2906246E-02  (-0.3444769E-02)
 number of electron      63.9999976 magnetization 
 augmentation part       -3.3698127 magnetization 

 Free energy of the ion-electron system (eV)
  ---------------------------------------------------
  alpha Z        PSCENC =        47.65718222
  Ewald energy   TEWEN  =     -1815.23227814
  -Hartree energ DENC   =      -144.15285011
  -exchange      EXHF   =       484.68016987
  -V(xc)+E(xc)   XCENC  =         0.00000000
  PAW double counting   =      2181.51044331    -2185.42191629
  entropy T*S    EENTRO =         0.00000000
  eigenvalues    EBANDS =      -216.82547942
  atomic energy  EATOM  =      1505.12811154
  ---------------------------------------------------
  free energy    TOTEN  =      -142.65661701 eV

  energy without entropy =     -142.65661701  energy(sigma->0) =     -142.65661701
  exchange ACFDT corr.  =         0.00000000  see jH, gK, PRB 81, 115126


--------------------------------------------------------------------------------------------------------




--------------------------------------- Iteration      1(   9)  ---------------------------------------


    POTLOK:  cpu time      0.1904: real time      0.1909
    SETDIJ:  cpu time      0.0161: real time      0.0161
    TRIAL :  cpu time      5.5681: real time      5.5832
    CORREC:  cpu time      5.6462: real time      5.6615
    CHARGE:  cpu time      0.0236: real time      0.0236
    --------------------------------------------
      LOOP:  cpu time     11.4521: real time     11.4830

 eigenvalue-minimisations  :     0
 total energy-change (2. order) :-0.3449103E-02  (-0.1300993E-02)
 number of electron      63.9999976 magnetization 
 augmentation part       -3.3699902 magnetization 

 Free energy of the ion-electron system (eV)
  ---------------------------------------------------
  alpha Z        PSCENC =        47.65718222
  Ewald energy   TEWEN  =     -1815.23227814
  -Hartree energ DENC   =      -144.42273299
  -exchange      EXHF   =       484.86668739
  -V(xc)+E(xc)   XCENC  =         0.00000000
  PAW double counting   =      2190.75542423    -2194.66343075
  entropy T*S    EENTRO =         0.00000000
  eigenvalues    EBANDS =      -216.74902962
  atomic energy  EATOM  =      1505.12811154
  ---------------------------------------------------
  free energy    TOTEN  =      -142.66006611 eV

  energy without entropy =     -142.66006611  energy(sigma->0) =     -142.66006611
  exchange ACFDT corr.  =         0.00000000  see jH, gK, PRB 81, 115126


--------------------------------------------------------------------------------------------------------




--------------------------------------- Iteration      1(  10)  ---------------------------------------


    POTLOK:  cpu time      0.1880: real time      0.1885
    SETDIJ:  cpu time      0.0160: real time      0.0160
    TRIAL :  cpu time      5.5337: real time      5.5483
    CORREC:  cpu time      5.8781: real time      5.8940
    CHARGE:  cpu time      0.0632: real time      0.0634
    --------------------------------------------
      LOOP:  cpu time     11.6895: real time     11.7222

 eigenvalue-minimisations  :     0
 total energy-change (2. order) :-0.1293269E-02  (-0.1376284E-03)
 number of electron      63.9999976 magnetization 
 augmentation part       -3.3700847 magnetization 

 Free energy of the ion-electron system (eV)
  ---------------------------------------------------
  alpha Z        PSCENC =        47.65718222
  Ewald energy   TEWEN  =     -1815.23227814
  -Hartree energ DENC   =      -144.54411636
  -exchange      EXHF   =       484.95197385
  -V(xc)+E(xc)   XCENC  =         0.00000000
  PAW double counting   =      2196.05660996    -2199.96086325
  entropy T*S    EENTRO =         0.00000000
  eigenvalues    EBANDS =      -216.71797920
  atomic energy  EATOM  =      1505.12811154
  ---------------------------------------------------
  free energy    TOTEN  =      -142.66135938 eV

  energy without entropy =     -142.66135938  energy(sigma->0) =     -142.66135938
  exchange ACFDT corr.  =         0.00000000  see jH, gK, PRB 81, 115126


--------------------------------------------------------------------------------------------------------




--------------------------------------- Iteration      1(  11)  ---------------------------------------


    POTLOK:  cpu time      0.1898: real time      0.1902
    SETDIJ:  cpu time      0.0163: real time      0.0163
    TRIAL :  cpu time      5.7299: real time      5.7454
    CORREC:  cpu time      5.7950: real time      5.8107
    CHARGE:  cpu time      0.0629: real time      0.0630
    --------------------------------------------
      LOOP:  cpu time     11.8015: real time     11.8333

 eigenvalue-minimisations  :     0
 total energy-change (2. order) :-0.1382330E-03  (-0.1615049E-03)
 number of electron      63.9999976 magnetization 
 augmentation part       -3.3706736 magnetization 

 Free energy of the ion-electron system (eV)
  ---------------------------------------------------
  alpha Z        PSCENC =        47.65718222
  Ewald energy   TEWEN  =     -1815.23227814
  -Hartree energ DENC   =      -144.56240379
  -exchange      EXHF   =       484.96107667
  -V(xc)+E(xc)   XCENC  =         0.00000000
  PAW double counting   =      2196.08622844    -2199.99064916
  entropy T*S    EENTRO =         0.00000000
  eigenvalues    EBANDS =      -216.70876539
  atomic energy  EATOM  =      1505.12811154
  ---------------------------------------------------
  free energy    TOTEN  =      -142.66149761 eV

  energy without entropy =     -142.66149761  energy(sigma->0) =     -142.66149761
  exchange ACFDT corr.  =         0.00000000  see jH, gK, PRB 81, 115126


--------------------------------------------------------------------------------------------------------




--------------------------------------- Iteration      1(  12)  ---------------------------------------


    POTLOK:  cpu time      0.2079: real time      0.2084
    SETDIJ:  cpu time      0.0154: real time      0.0154
    TRIAL :  cpu time      5.5511: real time      5.5661
    CORREC:  cpu time      6.0039: real time      6.0199
    CHARGE:  cpu time      0.0234: real time      0.0234
    --------------------------------------------
      LOOP:  cpu time     11.8090: real time     11.8407

 eigenvalue-minimisations  :     0
 total energy-change (2. order) :-0.1627629E-03  (-0.2504647E-04)
 number of electron      63.9999976 magnetization 
 augmentation part       -3.3706420 magnetization 

 Free energy of the ion-electron system (eV)
  ---------------------------------------------------
  alpha Z        PSCENC =        47.65718222
  Ewald energy   TEWEN  =     -1815.23227814
  -Hartree energ DENC   =      -144.58579684
  -exchange      EXHF   =       484.97162248
  -V(xc)+E(xc)   XCENC  =         0.00000000
  PAW double counting   =      2196.01990981    -2199.92417044
  entropy T*S    EENTRO =         0.00000000
  eigenvalues    EBANDS =      -216.69624101
  atomic energy  EATOM  =      1505.12811154
  ---------------------------------------------------
  free energy    TOTEN  =      -142.66166037 eV

  energy without entropy =     -142.66166037  energy(sigma->0) =     -142.66166037
  exchange ACFDT corr.  =         0.00000000  see jH, gK, PRB 81, 115126


--------------------------------------------------------------------------------------------------------




--------------------------------------- Iteration      1(  13)  ---------------------------------------


    POTLOK:  cpu time      0.1870: real time      0.1874
    SETDIJ:  cpu time      0.0151: real time      0.0151
    TRIAL :  cpu time      5.9154: real time      5.9313
    CORREC:  cpu time      5.7009: real time      5.7162
    CHARGE:  cpu time      0.0236: real time      0.0237
    --------------------------------------------
      LOOP:  cpu time     11.8498: real time     11.8816

 eigenvalue-minimisations  :     0
 total energy-change (2. order) :-0.2493157E-04  (-0.1127926E-04)
 number of electron      63.9999976 magnetization 
 augmentation part       -3.3706286 magnetization 

 Free energy of the ion-electron system (eV)
  ---------------------------------------------------
  alpha Z        PSCENC =        47.65718222
  Ewald energy   TEWEN  =     -1815.23227814
  -Hartree energ DENC   =      -144.58769433
  -exchange      EXHF   =       484.97108966
  -V(xc)+E(xc)   XCENC  =         0.00000000
  PAW double counting   =      2195.80317304    -2199.70776422
  entropy T*S    EENTRO =         0.00000000
  eigenvalues    EBANDS =      -216.69350509
  atomic energy  EATOM  =      1505.12811154
  ---------------------------------------------------
  free energy    TOTEN  =      -142.66168531 eV

  energy without entropy =     -142.66168531  energy(sigma->0) =     -142.66168531
  exchange ACFDT corr.  =         0.00000000  see jH, gK, PRB 81, 115126


--------------------------------------------------------------------------------------------------------




--------------------------------------- Iteration      1(  14)  ---------------------------------------


    POTLOK:  cpu time      0.1972: real time      0.1977
    SETDIJ:  cpu time      0.0545: real time      0.0546
    TRIAL :  cpu time      5.4736: real time      5.4885
    CORREC:  cpu time      5.7614: real time      5.7766
    CHARGE:  cpu time      0.0236: real time      0.0237
    --------------------------------------------
      LOOP:  cpu time     11.5182: real time     11.5489

 eigenvalue-minimisations  :     0
 total energy-change (2. order) :-0.1131822E-04  (-0.6816540E-05)
 number of electron      63.9999976 magnetization 
 augmentation part       -3.3708235 magnetization 

 Free energy of the ion-electron system (eV)
  ---------------------------------------------------
  alpha Z        PSCENC =        47.65718222
  Ewald energy   TEWEN  =     -1815.23227814
  -Hartree energ DENC   =      -144.58416514
  -exchange      EXHF   =       484.96715183
  -V(xc)+E(xc)   XCENC  =         0.00000000
  PAW double counting   =      2195.56972813    -2199.47459947
  entropy T*S    EENTRO =         0.00000000
  eigenvalues    EBANDS =      -216.69282762
  atomic energy  EATOM  =      1505.12811154
  ---------------------------------------------------
  free energy    TOTEN  =      -142.66169662 eV

  energy without entropy =     -142.66169662  energy(sigma->0) =     -142.66169662
  exchange ACFDT corr.  =         0.00000000  see jH, gK, PRB 81, 115126


--------------------------------------------------------------------------------------------------------




--------------------------------------- Iteration      1(  15)  ---------------------------------------


    POTLOK:  cpu time      0.1826: real time      0.1834
    SETDIJ:  cpu time      0.0151: real time      0.0151
    TRIAL :  cpu time      5.4914: real time      5.5062
    CORREC:  cpu time      5.5075: real time      5.5224
    CHARGE:  cpu time      0.1025: real time      0.1028
    --------------------------------------------
      LOOP:  cpu time     11.3069: real time     11.3375

 eigenvalue-minimisations  :     0
 total energy-change (2. order) :-0.6816955E-05  (-0.1058400E-05)
 number of electron      63.9999976 magnetization 
 augmentation part       -3.3708413 magnetization 

 Free energy of the ion-electron system (eV)
  ---------------------------------------------------
  alpha Z        PSCENC =        47.65718222
  Ewald energy   TEWEN  =     -1815.23227814
  -Hartree energ DENC   =      -144.58002474
  -exchange      EXHF   =       484.96403764
  -V(xc)+E(xc)   XCENC  =         0.00000000
  PAW double counting   =      2195.60840342    -2199.51303081
  entropy T*S    EENTRO =         0.00000000
  eigenvalues    EBANDS =      -216.69410457
  atomic energy  EATOM  =      1505.12811154
  ---------------------------------------------------
  free energy    TOTEN  =      -142.66170344 eV

  energy without entropy =     -142.66170344  energy(sigma->0) =     -142.66170344
  exchange ACFDT corr.  =         0.00000000  see jH, gK, PRB 81, 115126


--------------------------------------------------------------------------------------------------------




--------------------------------------- Iteration      1(  16)  ---------------------------------------


    POTLOK:  cpu time      0.1908: real time      0.1913
    SETDIJ:  cpu time      0.0158: real time      0.0158
    TRIAL :  cpu time      5.5856: real time      5.6007
    CORREC:  cpu time      5.6582: real time      5.6731
    CHARGE:  cpu time      0.0633: real time      0.0634
    --------------------------------------------
      LOOP:  cpu time     11.5244: real time     11.5559

 eigenvalue-minimisations  :     0
 total energy-change (2. order) :-0.1058087E-05  (-0.9758999E-06)
 number of electron      63.9999976 magnetization 
 augmentation part       -3.3708623 magnetization 

 Free energy of the ion-electron system (eV)
  ---------------------------------------------------
  alpha Z        PSCENC =        47.65718222
  Ewald energy   TEWEN  =     -1815.23227814
  -Hartree energ DENC   =      -144.57788030
  -exchange      EXHF   =       484.96252194
  -V(xc)+E(xc)   XCENC  =         0.00000000
  PAW double counting   =      2195.61084363    -2199.51543947
  entropy T*S    EENTRO =         0.00000000
  eigenvalues    EBANDS =      -216.69476593
  atomic energy  EATOM  =      1505.12811154
  ---------------------------------------------------
  free energy    TOTEN  =      -142.66170450 eV

  energy without entropy =     -142.66170450  energy(sigma->0) =     -142.66170450
  exchange ACFDT corr.  =         0.00000000  see jH, gK, PRB 81, 115126


--------------------------------------------------------------------------------------------------------




--------------------------------------- Iteration      1(  17)  ---------------------------------------


    POTLOK:  cpu time      0.1922: real time      0.1927
    SETDIJ:  cpu time      0.0152: real time      0.0152
    TRIAL :  cpu time      5.8620: real time      5.8778
    CORREC:  cpu time      5.4883: real time      5.5188
    EDDIAG:  cpu time      5.2805: real time      5.2948
    CHARGE:  cpu time      0.0226: real time      0.0226
    --------------------------------------------
      LOOP:  cpu time     16.8682: real time     16.9293

 eigenvalue-minimisations  :     0
 total energy-change (2. order) :-0.9805900E-06  (-0.4202390E-06)
 number of electron      63.9999976 magnetization 
 augmentation part       -3.3708579 magnetization 

 Free energy of the ion-electron system (eV)
  ---------------------------------------------------
  alpha Z        PSCENC =        47.65718222
  Ewald energy   TEWEN  =     -1815.23227814
  -Hartree energ DENC   =      -144.57292161
  -exchange      EXHF   =       484.95736777
  -V(xc)+E(xc)   XCENC  =         0.00000000
  PAW double counting   =      2195.63442983    -2199.53893904
  entropy T*S    EENTRO =         0.00000000
  eigenvalues    EBANDS =      -216.69645459
  atomic energy  EATOM  =      1505.12811154
  ---------------------------------------------------
  free energy    TOTEN  =      -142.66170548 eV

  energy without entropy =     -142.66170548  energy(sigma->0) =     -142.66170548
  exchange ACFDT corr.  =         0.00000000  see jH, gK, PRB 81, 115126


--------------------------------------------------------------------------------------------------------


  average scaling for gradient   0.7970


 average (electrostatic) potential at core
  the test charge radii are     1.1243
  (the norm of the test charge is              1.0000)
       1 -50.1479       2 -50.1479       3 -50.1479       4 -50.1479       5 -50.1479
       6 -50.1479       7 -50.1479       8 -50.1479       9 -50.1479      10 -50.1479
      11 -50.1479      12 -50.1479      13 -50.1479      14 -50.1479      15 -50.1479
      16 -50.1479
 
 
 
 E-fermi :   2.4726     XC(G=0):   0.0000     alpha+bet :-11.3646

 Fermi energy:         2.4726294985

 k-point     1 :       0.0000    0.0000    0.0000
  band No.  band energies     occupation 
      1     -13.1048      2.00000
      2      -9.9444      2.00000
      3      -9.9444      2.00000
      4      -9.9444      2.00000
      5      -9.9444      2.00000
      6      -7.3477      2.00000
      7      -7.3477      2.00000
      8      -7.3477      2.00000
      9      -7.3477      2.00000
     10      -7.3477      2.00000
     11      -7.3477      2.00000
     12      -5.8567      2.00000
     13      -5.8567      2.00000
     14      -5.8567      2.00000
     15      -5.8567      2.00000
     16      -0.7379      2.00000
     17      -0.7379      2.00000
     18      -0.7379      2.00000
     19      -0.7379      2.00000
     20      -0.7379      2.00000
     21      -0.7379      2.00000
     22       1.1430      2.00000
     23       1.1430      2.00000
     24       1.1430      2.00000
     25       1.1430      2.00000
     26       1.1430      2.00000
     27       1.1430      2.00000
     28       1.1430      2.00000
     29       1.1430      2.00000
     30       2.4431      2.00000
     31       2.4431      2.00000
     32       2.4431      2.00000
     33      10.8030      0.00000
     34      10.8030      0.00000
     35      10.8030      0.00000
     36      10.8030      0.00000
     37      10.8030      0.00000
     38      10.8030      0.00000
     39      12.0039      0.00000
     40      12.0039      0.00000
     41      12.0039      0.00000
     42      12.0039      0.00000
     43      13.2319      0.00000
     44      13.2319      0.00000
     45      13.2319      0.00000
     46      13.9867      0.00000
     47      13.9867      0.00000
     48      13.9867      0.00000
     49      13.9867      0.00000
     50      13.9867      0.00000
     51      13.9867      0.00000
     52      13.9867      0.00000
     53      13.9867      0.00000
     54      14.7376      0.00000
     55      18.3556      0.00000
     56      18.3556      0.00000
     57      18.3556      0.00000
     58      18.3557      0.00000
     59      18.3649      0.00000
     60      19.0056      0.00000
     61      19.0056      0.00000
     62      22.2714      0.00000
     63      22.2714      0.00000
     64      22.2714      0.00000
     65      22.2714      0.00000
     66      22.2714      0.00000
     67      22.2714      0.00000
     68      22.2714      0.00000
     69      22.2714      0.00000
     70      22.4232      0.00000
     71      22.4232      0.00000
     72      22.4232      0.00000
     73      22.4232      0.00000
     74      22.4232      0.00000
     75      22.4232      0.00000
     76      22.5114      0.00000
     77      22.5114      0.00000
     78      22.5114      0.00000
     79      22.5271      0.00000
     80      22.5271      0.00000
     81      22.5271      0.00000
     82      22.5271      0.00000
     83      22.5271      0.00000
     84      22.5271      0.00000
     85      22.7414      0.00000
     86      22.7414      0.00000
     87      22.7414      0.00000
     88      22.7415      0.00000
     89      23.2098      0.00000
     90      23.2098      0.00000
     91      23.2098      0.00000
     92      23.2098      0.00000
     93      23.2098      0.00000
     94      23.2098      0.00000
     95      23.2098      0.00000
     96      23.2098      0.00000
     97      24.5484      0.00000
     98      24.5484      0.00000
     99      24.5484      0.00000
    100      24.5484      0.00000
    101      24.5484      0.00000
    102      24.5484      0.00000
    103      25.1409      0.00000
    104      25.1409      0.00000
    105      25.1409      0.00000
    106      25.1409      0.00000
    107      25.1409      0.00000
    108      25.1409      0.00000
    109      25.4079      0.00000
    110      25.4080      0.00000
    111      25.4080      0.00000
    112      25.4080      0.00000
    113      25.6879      0.00000
    114      30.7765      0.00000
    115      30.7765      0.00000
    116      30.7765      0.00000
    117      30.7765      0.00000
    118      30.7765      0.00000
    119      30.7765      0.00000
    120      31.3164      0.00000
    121      31.3164      0.00000
    122      31.3164      0.00000
    123      31.3164      0.00000
    124      31.3164      0.00000
    125      31.3164      0.00000
    126      31.9612      0.00000
    127      31.9612      0.00000
    128      31.9612      0.00000
    129      31.9612      0.00000
    130      32.0373      0.00000
    131      32.0373      0.00000
    132      32.0373      0.00000
    133      32.0381      0.00000
    134      32.2867      0.00000
    135      32.2867      0.00000
    136      32.2867      0.00000
    137      32.2867      0.00000
    138      32.2867      0.00000
    139      32.2867      0.00000
    140      33.2752      0.00000
    141      33.2753      0.00000
    142      33.2753      0.00000
    143      33.2753      0.00000
    144      33.2753      0.00000
    145      33.2753      0.00000
    146      33.7442      0.00000
    147      33.7442      0.00000
    148      33.7442      0.00000
    149      33.7442      0.00000
    150      33.7442      0.00000
    151      33.7442      0.00000
    152      33.7442      0.00000
    153      33.7442      0.00000
    154      34.8028      0.00000
    155      34.8028      0.00000
    156      34.8028      0.00000
    157      34.8029      0.00000
    158      34.8029      0.00000
    159      34.8029      0.00000
    160      34.8029      0.00000
    161      34.8029      0.00000
    162      36.1147      0.00000
    163      36.1148      0.00000
    164      36.1150      0.00000
    165      37.3103      0.00000
    166      37.3103      0.00000
    167      37.3103      0.00000
    168      37.3103      0.00000
    169      37.8900      0.00000
    170      37.8900      0.00000
    171      39.1443      0.00000
    172      39.1443      0.00000
    173      39.1443      0.00000
    174      39.2017      0.00000
    175      39.2017      0.00000
    176      39.2017      0.00000
    177      39.2018      0.00000
    178      39.2018      0.00000
    179      39.2018      0.00000
    180      39.3280      0.00000
    181      39.3280      0.00000
    182      39.3280      0.00000
    183      39.3281      0.00000
    184      39.3281      0.00000
    185      39.3281      0.00000
    186      39.3281      0.00000
    187      39.3281      0.00000
    188      39.3330      0.00000
    189      39.3330      0.00000
    190      39.3330      0.00000
    191      39.3330      0.00000
    192      41.2105      0.00000
    193      41.2105      0.00000
    194      41.2106      0.00000
    195      41.2109      0.00000
    196      41.2110      0.00000
    197      41.2139      0.00000
    198      41.2152      0.00000
    199      41.2156      0.00000
    200      42.1377      0.00000
    201      42.1377      0.00000
    202      42.1377      0.00000
    203      43.0982      0.00000
    204      43.0993      0.00000
    205      43.1054      0.00000
    206      43.1290      0.00000
    207      43.1293      0.00000
    208      43.1353      0.00000
    209      44.3652      0.00000
    210      44.3652      0.00000
    211      44.3652      0.00000
    212      44.3652      0.00000
    213      44.6485      0.00000
    214      44.6485      0.00000
    215      44.6485      0.00000
    216      44.6489      0.00000
    217      44.6490      0.00000
    218      44.6507      0.00000
    219      44.6516      0.00000
    220      44.6518      0.00000
    221      45.4989      0.00000
    222      45.4989      0.00000
    223      45.4990      0.00000
    224      45.4992      0.00000
    225      45.4994      0.00000
    226      45.5010      0.00000
    227      45.5016      0.00000
    228      45.5038      0.00000
    229      46.0374      0.00000
    230      46.0374      0.00000
    231      46.0374      0.00000
    232      46.0374      0.00000
    233      46.0374      0.00000
    234      46.0374      0.00000
    235      46.6779      0.00000
    236      46.7741      0.00000
    237      46.7742      0.00000
    238      46.7744      0.00000
    239      46.7748      0.00000
    240      46.9005      0.00000
    241      46.9794      0.00000
    242      46.9863      0.00000
    243      47.0566      0.00000
    244      47.2707      0.00000
    245      48.0486      0.00000
    246      48.0486      0.00000
    247      48.0487      0.00000
    248      48.5849      0.00000
    249      48.5849      0.00000
    250      48.5849      0.00000
    251      48.5849      0.00000
    252      48.6299      0.00000
    253      48.6299      0.00000
    254      48.6299      0.00000
    255      48.6299      0.00000
    256      48.6299      0.00000
    257      48.6299      0.00000
    258      48.7131      0.00000
    259      48.7132      0.00000
    260      48.7132      0.00000
    261      48.7138      0.00000
    262      49.7228      0.00000
    263      50.8682      0.00000
    264      50.8683      0.00000
    265      50.8684      0.00000
    266      50.8684      0.00000
    267      50.8686      0.00000
    268      50.8686      0.00000
    269      51.3875      0.00000
    270      51.3875      0.00000
    271      52.3158      0.00000
    272      52.3158      0.00000
    273      52.3158      0.00000
    274      52.3292      0.00000
    275      52.3382      0.00000
    276      52.3477      0.00000
    277      52.9757      0.00000
    278      52.9757      0.00000
    279      52.9757      0.00000
    280      52.9757      0.00000
    281      52.9757      0.00000
    282      52.9757      0.00000
    283      52.9757      0.00000
    284      52.9757      0.00000
    285      53.0186      0.00000
    286      53.0186      0.00000
    287      53.0186      0.00000
    288      53.0186      0.00000
    289      53.0187      0.00000
    290      53.0187      0.00000
    291      53.0380      0.00000
    292      53.0380      0.00000
    293      53.6319      0.00000
    294      53.6319      0.00000
    295      53.6319      0.00000
    296      53.6319      0.00000
    297      53.6319      0.00000
    298      53.6319      0.00000
    299      55.0685      0.00000
    300      55.0694      0.00000
    301      55.0747      0.00000
    302      55.4041      0.00000
    303      55.4041      0.00000
    304      55.4041      0.00000
    305      55.4041      0.00000
    306      55.7020      0.00000
    307      55.7020      0.00000
    308      55.7199      0.00000
    309      55.7236      0.00000
    310      55.7274      0.00000
    311      55.8676      0.00000
    312      55.8807      0.00000
    313      55.8930      0.00000
    314      56.9008      0.00000
    315      56.9013      0.00000
    316      56.9018      0.00000
    317      56.9018      0.00000
    318      56.9833      0.00000
    319      56.9833      0.00000
    320      56.9833      0.00000
    321      57.5528      0.00000
    322      57.5611      0.00000
    323      57.5632      0.00000
    324      57.8026      0.00000
    325      57.8026      0.00000
    326      57.8026      0.00000
    327      57.8026      0.00000
    328      57.8026      0.00000
    329      57.8026      0.00000
    330      58.0474      0.00000
    331      58.0474      0.00000
    332      58.0474      0.00000
    333      58.7023      0.00000
    334      58.8263      0.00000
    335      58.8263      0.00000
    336      58.8264      0.00000
    337      60.2563      0.00000
    338      60.2564      0.00000
    339      60.3300      0.00000
    340      60.5818      0.00000
    341      60.6656      0.00000
    342      60.9295      0.00000
    343      60.9295      0.00000
    344      60.9295      0.00000
    345      60.9311      0.00000
    346      60.9320      0.00000
    347      60.9432      0.00000
    348      60.9524      0.00000
    349      60.9531      0.00000
    350      61.0817      0.00000
    351      61.8033      0.00000
    352      61.9687      0.00000
    353      62.1777      0.00000
    354      62.3241      0.00000
    355      62.3243      0.00000
    356      62.3247      0.00000
    357      62.3248      0.00000
    358      62.4153      0.00000
    359      62.4153      0.00000
    360      62.4153      0.00000
    361      62.4153      0.00000
    362      62.4153      0.00000
    363      62.4153      0.00000
    364      63.0235      0.00000
    365      63.0236      0.00000
    366      63.0245      0.00000
    367      63.5530      0.00000
    368      63.5544      0.00000
    369      63.5753      0.00000
    370      64.2968      0.00000
    371      64.2968      0.00000
    372      64.2968      0.00000
    373      64.2968      0.00000
    374      64.2968      0.00000
    375      64.2968      0.00000
    376      65.0860      0.00000
    377      65.0860      0.00000
    378      65.0860      0.00000
    379      65.0860      0.00000
    380      65.0860      0.00000
    381      65.0861      0.00000
    382      65.0861      0.00000
    383      65.0861      0.00000
    384      65.7703      0.00000


--------------------------------------------------------------------------------------------------------


 soft charge-density along one line, spin component           1
         0         1         2         3         4         5         6         7         8         9
 total charge-density along one line
 
 pseudopotential strength for first ion, spin component:           1
 14.416 -16.723  -0.000   0.000   0.000   0.000  -0.000  -0.000
-16.723  52.889   0.000  -0.000  -0.000  -0.000   0.000   0.000
 -0.000   0.000   3.359   0.000   0.000  -9.833  -0.000  -0.000
  0.000  -0.000   0.000   3.359   0.000  -0.000  -9.833  -0.000
  0.000  -0.000   0.000   0.000   3.359  -0.000  -0.000  -9.833
  0.000  -0.000  -9.833  -0.000  -0.000  31.350   0.000   0.000
 -0.000   0.000  -0.000  -9.833  -0.000   0.000  31.350   0.000
 -0.000   0.000  -0.000  -0.000  -9.833   0.000   0.000  31.350
  0.000   0.000   0.000  -0.007  -0.000  -0.000   0.012   0.000
  0.000   0.000   0.000  -0.000  -0.007  -0.000   0.000   0.012
  0.000   0.000   0.000   0.000  -0.000  -0.000  -0.000   0.000
  0.000   0.000  -0.007   0.000   0.000   0.012  -0.000  -0.000
  0.000   0.000   0.000   0.000   0.000  -0.000   0.000  -0.000
 -0.000   0.000  -0.000   0.029   0.000   0.000  -0.074  -0.000
 -0.000   0.000  -0.000   0.000   0.029   0.000  -0.000  -0.074
 -0.000   0.000  -0.000  -0.000   0.000   0.000   0.000  -0.000
 -0.000   0.000   0.029  -0.000  -0.000  -0.074   0.000   0.000
 -0.000   0.000  -0.000  -0.000  -0.000   0.000   0.000   0.000
 total augmentation occupancy for first ion, spin component:           1
  1.355   0.047   0.000  -0.000  -0.000   0.000  -0.000  -0.000   0.000   0.000   0.000   0.000   0.000   0.000   0.000  -0.000
  0.047   0.002  -0.000  -0.000  -0.000   0.000  -0.000  -0.000  -0.000   0.000   0.000  -0.000   0.000   0.000   0.000   0.000
  0.000  -0.000   1.394  -0.000  -0.000   0.057  -0.000   0.000   0.000  -0.000  -0.000   0.226  -0.000   0.000   0.000  -0.000
 -0.000  -0.000  -0.000   1.394  -0.000  -0.000   0.057  -0.000   0.226  -0.000   0.000   0.000  -0.000  -0.000   0.000   0.000
 -0.000  -0.000  -0.000  -0.000   1.394   0.000  -0.000   0.057  -0.000   0.226  -0.000   0.000   0.000   0.000  -0.000  -0.000
  0.000   0.000   0.057  -0.000   0.000   0.002  -0.000  -0.000  -0.000  -0.000  -0.000   0.009  -0.000   0.000   0.000  -0.000
 -0.000  -0.000  -0.000   0.057  -0.000  -0.000   0.002  -0.000   0.009  -0.000   0.000  -0.000  -0.000   0.000   0.000   0.000
 -0.000  -0.000   0.000  -0.000   0.057  -0.000  -0.000   0.002  -0.000   0.009  -0.000  -0.000   0.000   0.000   0.000  -0.000
  0.000  -0.000   0.000   0.226  -0.000  -0.000   0.009  -0.000   0.040  -0.000   0.000   0.000  -0.000   0.000   0.000   0.000
  0.000   0.000  -0.000  -0.000   0.226  -0.000  -0.000   0.009  -0.000   0.040  -0.000   0.000   0.000   0.000   0.000  -0.000
  0.000   0.000  -0.000   0.000  -0.000  -0.000   0.000  -0.000   0.000  -0.000   0.002  -0.000   0.000   0.000  -0.000   0.000
  0.000  -0.000   0.226   0.000   0.000   0.009  -0.000  -0.000   0.000   0.000  -0.000   0.040  -0.000   0.000   0.000  -0.000
  0.000   0.000  -0.000  -0.000   0.000  -0.000  -0.000   0.000  -0.000   0.000   0.000  -0.000   0.002  -0.000   0.000  -0.000
  0.000   0.000   0.000  -0.000   0.000   0.000   0.000   0.000   0.000   0.000   0.000   0.000  -0.000   0.000  -0.000   0.000
  0.000   0.000   0.000   0.000  -0.000   0.000   0.000   0.000   0.000   0.000  -0.000   0.000   0.000  -0.000   0.000  -0.000
 -0.000   0.000  -0.000   0.000  -0.000  -0.000   0.000  -0.000   0.000  -0.000   0.000  -0.000  -0.000   0.000  -0.000   0.000
  0.000   0.000  -0.000   0.000   0.000   0.000   0.000   0.000   0.000   0.000  -0.000   0.000  -0.000  -0.000   0.000   0.000
 -0.000   0.000  -0.000   0.000   0.000  -0.000   0.000   0.000   0.000   0.000  -0.000  -0.000   0.000  -0.000   0.000  -0.000


------------------------ aborting loop because EDIFF is reached ----------------------------------------


    FORLOC:  cpu time      0.0007: real time      0.0007
    FORHF :  cpu time      0.2922: real time      0.3090
    FORNL :  cpu time      0.0422: real time      0.0425
    FORCOR:  cpu time      0.1720: real time      0.1728
    OFIELD:  cpu time      0.0001: real time      0.0002

 VOLUME and BASIS-vectors are now :
 -----------------------------------------------------------------------------
  energy-cutoff  :      400.00
  volume of cell :      327.28
      direct lattice vectors                 reciprocal lattice vectors
     5.469713400  5.469713400  0.000000000     0.091412468  0.091412468 -0.091412468
     0.000000000  5.469713400  5.469713400    -0.091412468  0.091412468  0.091412468
     5.469713400  0.000000000  5.469713400     0.091412468 -0.091412468  0.091412468

  length of vectors
     7.735342873  7.735342873  7.735342873     0.158331039  0.158331039  0.158331039


 FORCES acting on ions:
    Electron-Ion                     Ewald-Force                    Non-Local-Force
 -----------------------------------------------------------------------------------------------
   -.644E-05 0.681E-05 -.126E-04   -.242E-13 -.329E-13 0.202E-13   0.465E-21 0.131E-20 0.111E-20
   0.107E-04 -.143E-04 -.148E-04   -.246E-13 -.320E-13 0.175E-13   0.105E-20 0.134E-20 0.121E-20
   -.691E-05 -.123E-04 0.622E-05   -.280E-13 -.329E-13 0.207E-13   0.112E-20 0.144E-20 0.166E-20
   0.834E-05 0.707E-05 0.640E-05   -.249E-13 -.320E-13 0.213E-13   0.124E-20 0.152E-20 0.168E-20
   0.834E-05 0.707E-05 0.640E-05   -.235E-13 -.278E-13 0.207E-13   0.609E-21 0.133E-20 0.142E-20
   -.691E-05 -.123E-04 0.622E-05   -.249E-13 -.320E-13 0.213E-13   0.526E-21 0.973E-21 0.129E-20
   0.107E-04 -.143E-04 -.148E-04   -.249E-13 -.320E-13 0.213E-13   0.119E-20 0.140E-20 0.108E-20
   -.644E-05 0.681E-05 -.126E-04   -.249E-13 -.320E-13 0.213E-13   0.553E-21 0.135E-20 0.163E-20
   -.213E-05 -.283E-05 0.968E-05   0.246E-13 0.334E-13 -.188E-13   -.528E-21 -.130E-20 -.123E-20
   -.130E-05 0.108E-04 0.106E-04   0.237E-13 0.317E-13 -.170E-13   -.977E-21 -.135E-20 -.137E-20
   -.147E-05 0.104E-04 -.159E-05   0.284E-13 0.329E-13 -.204E-13   -.107E-20 -.139E-20 -.177E-20
   0.123E-06 -.790E-05 -.677E-05   0.254E-13 0.326E-13 -.205E-13   -.133E-20 -.154E-20 -.148E-20
   0.123E-06 -.790E-05 -.677E-05   0.228E-13 0.271E-13 -.214E-13   -.490E-21 -.130E-20 -.125E-20
   -.147E-05 0.104E-04 -.159E-05   0.243E-13 0.319E-13 -.216E-13   -.512E-21 -.101E-20 -.123E-20
   -.130E-05 0.108E-04 0.106E-04   0.256E-13 0.322E-13 -.217E-13   -.121E-20 -.142E-20 -.111E-20
   -.213E-05 -.283E-05 0.968E-05   0.243E-13 0.314E-13 -.226E-13   -.526E-21 -.137E-20 -.143E-20
 -----------------------------------------------------------------------------------------------
   0.181E-05 -.454E-05 -.565E-05   -.549E-15 -.119E-15 0.145E-15   0.120E-21 -.427E-23 0.196E-21
 
 
 POSITION                                       TOTAL-FORCE (eV/Angst)
 -----------------------------------------------------------------------------------
      0.00000      0.00000      0.00000        -0.000000      0.000000     -0.000000
      2.73486      2.73486      0.00000        -0.000000     -0.000000     -0.000000
      0.00000      2.73486      2.73486        -0.000000      0.000000      0.000000
      2.73486      5.46971      2.73486        -0.000000      0.000000     -0.000000
      2.73486      0.00000      2.73486        -0.000000      0.000000     -0.000000
      5.46971      2.73486      2.73486        -0.000000      0.000000     -0.000000
      2.73486      2.73486      5.46971        -0.000000      0.000000      0.000000
      5.46971      5.46971      5.46971        -0.000000      0.000000     -0.000000
      1.36743      1.36743      1.36743         0.000000     -0.000000      0.000000
      4.10229      4.10229      1.36743         0.000000      0.000000      0.000000
      1.36743      4.10229      4.10229         0.000000     -0.000000     -0.000000
      4.10229      6.83714      4.10229         0.000000     -0.000000      0.000000
      4.10229      1.36743      4.10229         0.000000     -0.000000      0.000000
      6.83714      4.10229      4.10229         0.000000     -0.000000      0.000000
      4.10229      4.10229      6.83714         0.000000     -0.000000     -0.000000
      6.83714      6.83714      6.83714         0.000000     -0.000000      0.000000
 -----------------------------------------------------------------------------------
    total drift:                                0.000002     -0.000005     -0.000006


--------------------------------------------------------------------------------------------------------



  FREE ENERGIE OF THE ION-ELECTRON SYSTEM (eV)
  ---------------------------------------------------
  free  energy   TOTEN  =      -142.66170548 eV

  energy  without entropy=     -142.66170548  energy(sigma->0) =     -142.66170548
 


--------------------------------------------------------------------------------------------------------


    POTLOK:  cpu time      0.2444: real time      0.2452


--------------------------------------------------------------------------------------------------------


 writing wavefunctions
     LOOP+:  cpu time    207.1090: real time    207.7464
    4ORBIT:  cpu time      0.0000: real time      0.0000

 total amount of memory used by VASP MPI-rank0   180678. kBytes
=======================================================================

   base      :      30000. kBytes
   nonl-proj :       1228. kBytes
   fftplans  :        558. kBytes
   grid      :       2897. kBytes
   one-center:        124. kBytes
   HF        :         64. kBytes
   nonlr-proj:       7895. kBytes
   wavefun   :        156. kBytes
   fock_wrk  :     137756. kBytes
 
  
  
 General timing and accounting informations for this job:
 ========================================================
  
                  Total CPU time used (sec):      215.273
                            User time (sec):      118.918
                          System time (sec):       96.356
                         Elapsed time (sec):      216.207
  
                   Maximum memory used (kb):      492744.
                   Average memory used (kb):          N/A
  
                          Minor page faults:      1406840
                          Major page faults:            0
                 Voluntary context switches:         1706
