 vasp.6.3.0 20Jan22 (build Mar 03 2022 12:53:00) gamma-only                     
  
 executed on             LinuxIFC date 2022.03.20  16:11:01
 running on  384 total cores
 distrk:  each k-point on  384 cores,    1 groups
 distr:  one band on NCORE=   1 cores,  384 groups


--------------------------------------------------------------------------------------------------------


 INCAR:
   ENCUT = 400
   SIGMA = 0.0001
   EDIFF = 1E-6
   LHFCALC = .TRUE.
   AEXX = 1.0
   ISYM = -1
   ALGO = sub
   NELM = 1
   NBANDS = 930
   NBANDSHIGH = 930

 POTCAR:    PAW Si_GW 04May2012                   
 -----------------------------------------------------------------------------
|                                                                             |
|           W    W    AA    RRRRR   N    N  II  N    N   GGGG   !!!           |
|           W    W   A  A   R    R  NN   N  II  NN   N  G    G  !!!           |
|           W    W  A    A  R    R  N N  N  II  N N  N  G       !!!           |
|           W WW W  AAAAAA  RRRRR   N  N N  II  N  N N  G  GGG   !            |
|           WW  WW  A    A  R   R   N   NN  II  N   NN  G    G                |
|           W    W  A    A  R    R  N    N  II  N    N   GGGG   !!!           |
|                                                                             |
|     For optimal performance we recommend to set                             |
|       NCORE = 2 up to number-of-cores-per-socket                            |
|     NCORE specifies how many cores store one orbital (NPAR=cpu/NCORE).      |
|     This setting can greatly improve the performance of VASP for DFT.       |
|     The default, NCORE=1 might be grossly inefficient on modern             |
|     multi-core architectures or massively parallel machines. Do your        |
|     own testing! More info at https://www.vasp.at/wiki/index.php/NCORE      |
|     Unfortunately you need to use the default for GW and RPA                |
|     calculations (for HF NCORE is supported but not extensively tested      |
|     yet).                                                                   |
|                                                                             |
 -----------------------------------------------------------------------------

 POTCAR:    PAW Si_GW 04May2012                   
   VRHFIN =Si: s2p2                                                                                 
   LEXCH  = PE                                                                                      
   EATOM  =   103.0669 eV,    7.5752 Ry                                                             
                                                                                                    
   TITEL  = PAW Si_GW 04May2012                                                                     
   LULTRA =        F    use ultrasoft PP ?                                                          
   IUNSCR =        1    unscreen: 0-lin 1-nonlin 2-no                                               
   RPACOR =    1.500    partial core radius                                                         
   POMASS =   28.085; ZVAL   =    4.000    mass and valenz                                          
   RCORE  =    1.900    outmost cutoff radius                                                       
   RWIGS  =    2.480; RWIGS  =    1.312    wigner-seitz radius (au A)                               
   ENMAX  =  245.345; ENMIN  =  184.009 eV                                                          
   ICORE  =        3    local potential                                                             
   LCOR   =        T    correct aug charges                                                         
   LPAW   =        T    paw PP                                                                      
   EAUG   =  412.952                                                                                
   DEXC   =    0.000                                                                                
   RMAX   =    1.950    core radius for proj-oper                                                   
   RAUG   =    1.300    factor for augmentation sphere                                              
   RDEP   =    1.993    radius for radial grids                                                     
   RDEPT  =    2.000    core radius for aug-charge                                                  
                                                                                                    
   Atomic configuration                                                                             
    7 entries                                                                                       
     n  l   j            E        occ.                                                              
     1  0  0.50     -1785.8828   2.0000                                                             
     2  0  0.50      -139.4969   2.0000                                                             
     2  1  1.50       -95.5546   6.0000                                                             
     3  0  0.50       -10.8127   2.0000                                                             
     3  1  0.50        -4.0811   2.0000                                                             
     3  2  1.50        -4.0817   0.0000                                                             
     4  3  2.50        -4.0817   0.0000                                                             
   Description                                                                                      
     l       E           TYP  RCUT    TYP  RCUT                                                     
     0    -10.8127223     23  1.900                                                                 
     0     95.2407820     23  1.900                                                                 
     1     -4.0811372     23  1.900                                                                 
     1     54.4233040     23  1.900                                                                 
     2     -8.1634956     23  1.900                                                                 
     2     81.6349560     23  1.900                                                                 
     3     27.2116520     23  1.900                                                                 
  local pseudopotential read in
  partial core-charges read in
  partial kinetic energy density read in
  kinetic energy density of atom read in
  atomic valenz-charges read in
  non local Contribution for L=           0  read in
    real space projection operators read in
  non local Contribution for L=           0  read in
    real space projection operators read in
  non local Contribution for L=           1  read in
    real space projection operators read in
  non local Contribution for L=           1  read in
    real space projection operators read in
  non local Contribution for L=           2  read in
    real space projection operators read in
  non local Contribution for L=           2  read in
    real space projection operators read in
    PAW grid and wavefunctions read in
 
   number of l-projection  operators is LMAX  =           6
   number of lm-projection operators is LMMAX =          18
 
  PAW Si_GW 04May2012                   :
 energy of atom  1       EATOM= -103.0669
 kinetic energy error for atom=    0.0012 (will be added to EATOM!!)
 
 
 POSCAR: cd:
  positions in direct lattice
  velocities in cartesian coordinates
 exchange correlation table for  LEXCH =        8
   RHO(1)=    0.500       N(1)  =     2000
   RHO(2)=  100.500       N(2)  =     4000
 


--------------------------------------------------------------------------------------------------------


 ion  position               nearest neighbor table
   1  0.001  0.001  0.001-   9 2.38  12 2.38  10 2.38
   2  0.496  0.001  0.001-   9 2.38  11 2.38  13 2.38
   3  0.001  0.496  0.001-  10 2.38  11 2.38  14 2.38
   4  0.500  0.500  0.000-   9 2.37  10 2.37  11 2.37  15 2.37
   5  0.001  0.001  0.496-  12 2.38  13 2.38  14 2.38
   6  0.500  0.000  0.500-   9 2.37  12 2.37  13 2.37  15 2.37
   7  0.000  0.500  0.500-  10 2.37  12 2.37  14 2.37  15 2.37
   8  0.500  0.500  0.500-  11 2.37  13 2.37  14 2.37  15 2.37
   9  0.625  0.125  0.125-   4 2.37   6 2.37   2 2.38   1 2.38
  10  0.125  0.625  0.125-   4 2.37   7 2.37   3 2.38   1 2.38
  11  0.625  0.625  0.125-   4 2.37   8 2.37   2 2.38   3 2.38
  12  0.125  0.125  0.625-   6 2.37   7 2.37   5 2.38   1 2.38
  13  0.625  0.125  0.625-   6 2.37   8 2.37   2 2.38   5 2.38
  14  0.125  0.625  0.625-   7 2.37   8 2.37   3 2.38   5 2.38
  15  0.625  0.625  0.625-   4 2.37   7 2.37   6 2.37   8 2.37
 

IMPORTANT INFORMATION: All symmetrisations will be switched off!
NOSYMM: (Re-)initialisation of all symmetry stuff for point group C_1.


----------------------------------------------------------------------------------------

                                     Primitive cell                                     

  volume of cell :     327.2832

  direct lattice vectors                    reciprocal lattice vectors
     5.469713400  5.469713400  0.000000000     0.091412468  0.091412468 -0.091412468
     0.000000000  5.469713400  5.469713400    -0.091412468  0.091412468  0.091412468
     5.469713400  0.000000000  5.469713400     0.091412468 -0.091412468  0.091412468

  length of vectors
     7.735342873  7.735342873  7.735342873     0.158331039  0.158331039  0.158331039

  position of ions in fractional coordinates (direct lattice)
     0.001371464  0.001371464  0.001371464
     0.495885607  0.001371464  0.001371464
     0.001371464  0.495885607  0.001371464
     0.499999461  0.499999461  0.000001617
     0.001371464  0.001371464  0.495885607
     0.499999461  0.000001617  0.499999461
     0.000001617  0.499999461  0.499999461
     0.499999461  0.499999461  0.499999461
     0.624789722  0.125210278  0.125210278
     0.125210278  0.624789722  0.125210278
     0.624789722  0.624789722  0.125210278
     0.125210278  0.125210278  0.624789722
     0.624789722  0.125210278  0.624789722
     0.125210278  0.624789722  0.624789722
     0.625000000  0.625000000  0.625000000

  ion indices of the primitive-cell ions
   primitive index   ion index
                 1           1
                 2           2
                 3           3
                 4           4
                 5           5
                 6           6
                 7           7
                 8           8
                 9           9
                10          10
                11          11
                12          12
                13          13
                14          14
                15          15

----------------------------------------------------------------------------------------

 
 
 KPOINTS: Automatic mesh                          

Automatic generation of k-mesh.
 Grid dimensions read from file:
 generate k-points for:    1    1    1

 Generating k-lattice:

  Cartesian coordinates                     Fractional coordinates (reciprocal lattice)
     0.091412468  0.091412468 -0.091412468     1.000000000  0.000000000  0.000000000
    -0.091412468  0.091412468  0.091412468     0.000000000  1.000000000 -0.000000000
     0.091412468 -0.091412468  0.091412468    -0.000000000 -0.000000000  1.000000000

  Length of vectors
     0.158331039  0.158331039  0.158331039

  Shift w.r.t. Gamma in fractional coordinates (k-lattice)
     0.000000000  0.000000000  0.000000000

 
 Subroutine IBZKPT returns following result:
 ===========================================
 
 Found      1 irreducible k-points:
 
 Following reciprocal coordinates:
            Coordinates               Weight
  0.000000  0.000000  0.000000      1.000000
 
 Following cartesian coordinates:
            Coordinates               Weight
  0.000000  0.000000  0.000000      1.000000
 
 WARNING: full set of k-points will be restricted to regular points only.

 
 Subroutine IBZKPT_HF returns following result:
 ==============================================
 
 Found      1 k-points in 1st BZ
 the following      1 k-points will be used (e.g. in the exchange kernel)
 Following reciprocal coordinates:   # in IRBZ
  0.000000  0.000000  0.000000    1.00000000   1 t-inv F
 -----------------------------------------------------------------------------
|                                                                             |
|           W    W    AA    RRRRR   N    N  II  N    N   GGGG   !!!           |
|           W    W   A  A   R    R  NN   N  II  NN   N  G    G  !!!           |
|           W    W  A    A  R    R  N N  N  II  N N  N  G       !!!           |
|           W WW W  AAAAAA  RRRRR   N  N N  II  N  N N  G  GGG   !            |
|           WW  WW  A    A  R   R   N   NN  II  N   NN  G    G                |
|           W    W  A    A  R    R  N    N  II  N    N   GGGG   !!!           |
|                                                                             |
|     The number of bands has been changed from the values supplied in        |
|     the INCAR file. This is a result of running the parallel version.       |
|     The orbitals not found in the WAVECAR file will be initialized with     |
|     random numbers, which is usually adequate. For correlated               |
|     calculations, however, you should redo the groundstate calculation.     |
|     I found NBANDS = 930. Now, NBANDS = 1152.                               |
|                                                                             |
 -----------------------------------------------------------------------------



--------------------------------------------------------------------------------------------------------




 Dimension of arrays:
   k-points           NKPTS =      1   k-points in BZ     NKDIM =      1   number of bands    NBANDS=   1152
   number of dos      NEDOS =    301   number of ions     NIONS =     15
   non local maximal  LDIM  =      6   non local SUM 2l+1 LMDIM =     18
   total plane-waves  NPLWV =  64000
   max r-space proj   IRMAX =      1   max aug-charges    IRDMAX=   9797
   dimension x,y,z NGX =    40 NGY =   40 NGZ =   40
   dimension x,y,z NGXF=    80 NGYF=   80 NGZF=   80
   support grid    NGXF=    80 NGYF=   80 NGZF=   80
   ions per type =              15
   lowest and highest band optimized NBANDSLOW=      -1 NBANDSHIGH=     930
   NGX,Y,Z   is equivalent  to a cutoff of   8.60,  8.60,  8.60 a.u.
   NGXF,Y,Z  is equivalent  to a cutoff of  17.19, 17.19, 17.19 a.u.

 SYSTEM =  unknown system                          
 POSCAR =  cd:                                     

 Startparameter for this run:
   NWRITE =      2    write-flag & timer
   PREC   = normal    normal or accurate (medium, high low for compatibility)
   ISTART =      1    job   : 0-new  1-cont  2-samecut
   ICHARG =      0    charge: 1-file 2-atom 10-const
   ISPIN  =      1    spin polarized calculation?
   LNONCOLLINEAR =      F non collinear calculations
   LSORBIT =      F    spin-orbit coupling
   INIWAV =      1    electr: 0-lowe 1-rand  2-diag
   LASPH  =      F    aspherical Exc in radial PAW
 Electronic Relaxation 1
   ENCUT  =  400.0 eV  29.40 Ry    5.42 a.u.  12.61 12.61 12.61*2*pi/ulx,y,z
   ENINI  =  400.0     initial cutoff
   ENAUG  =  413.0 eV  augmentation charge cutoff
   NELM   =      1;   NELMIN=  2; NELMDL=  0     # of ELM steps 
   EDIFF  = 0.1E-05   stopping-criterion for ELM
   LREAL  =      F    real-space projection
   NLSPLINE    = F    spline interpolate recip. space projectors
   LCOMPAT=      F    compatible to vasp.4.4
   GGA_COMPAT  = T    GGA compatible to vasp.4.4-vasp.4.6
   LMAXPAW     = -100 max onsite density
   LMAXMIX     =    2 max onsite mixed and CHGCAR
   VOSKOWN=      0    Vosko Wilk Nusair interpolation
   ROPT   =    0.00000
 Ionic relaxation
   EDIFFG = 0.1E-04   stopping-criterion for IOM
   NSW    =      0    number of steps for IOM
   NBLOCK =      1;   KBLOCK =      1    inner block; outer block 
   IBRION =     -1    ionic relax: 0-MD 1-quasi-New 2-CG
   NFREE  =      0    steps in history (QN), initial steepest desc. (CG)
   ISIF   =      0    stress and relaxation
   IWAVPR =     10    prediction:  0-non 1-charg 2-wave 3-comb
   ISYM   =     -1    0-nonsym 1-usesym 2-fastsym
   LCORR  =      T    Harris-Foulkes like correction to forces

   POTIM  = 0.5000    time-step for ionic-motion
   TEIN   =    0.0    initial temperature
   TEBEG  =    0.0;   TEEND  =   0.0 temperature during run
   SMASS  =  -3.00    Nose mass-parameter (am)
   estimated Nose-frequenzy (Omega)   =  0.10E-29 period in steps = 0.13E+47 mass=  -0.137E-26a.u.
   SCALEE = 1.0000    scale energy and forces
   NPACO  =    256;   APACO  = 10.0  distance and # of slots for P.C.
   PSTRESS=    0.0 pullay stress

  Mass of Ions in am
   POMASS =  28.09
  Ionic Valenz
   ZVAL   =   4.00
  Atomic Wigner-Seitz radii
   RWIGS  =  -1.00
  virtual crystal weights 
   VCA    =   1.00
   NELECT =      60.0000    total number of electrons
   NUPDOWN=      -1.0000    fix difference up-down

 DOS related values:
   EMIN   =  10.00;   EMAX   =-10.00  energy-range for DOS
   EFERMI =   0.00
   ISMEAR =     1;   SIGMA  =   0.00  broadening in eV -4-tet -1-fermi 0-gaus

 Electronic relaxation 2 (details)
   IALGO  =      4    algorithm
   LDIAG  =      T    sub-space diagonalisation (order eigenvalues)
   LSUBROT=      F    optimize rotation matrix (better conditioning)
   TURBO    =      0    0=normal 1=particle mesh
   IRESTART =      0    0=no restart 2=restart with 2 vectors
   NREBOOT  =      0    no. of reboots
   NMIN     =      0    reboot dimension
   EREF     =   0.00    reference energy to select bands
   IMIX   =      1    mixing-type and parameters
     AMIX     =   0.40;   BMIX     =  1.00
     AMIX_MAG =   1.60;   BMIX_MAG =  1.00
     AMIN     =   0.10
     WC   =   100.;   INIMIX=   1;  MIXPRE=   1;  MAXMIX= -45

 Intra band minimization:
   WEIMIN = 0.0000     energy-eigenvalue tresh-hold
   EBREAK =  0.22E-09  absolut break condition
   DEPER  =   0.30     relativ break condition  

   TIME   =   0.40     timestep for ELM

  volume/ion in A,a.u.               =      21.82       147.24
  Fermi-wavevector in a.u.,A,eV,Ry     =   0.930002  1.757449 11.767737  0.864904
  Thomas-Fermi vector in A             =   2.056345
 
 Write flags
   LWAVE        =      T    write WAVECAR
   LDOWNSAMPLE  =      F    k-point downsampling of WAVECAR
   LCHARG       =      T    write CHGCAR
   LVTOT        =      F    write LOCPOT, total local potential
   LVHAR        =      F    write LOCPOT, Hartree potential only
   LELF         =      F    write electronic localiz. function (ELF)
   LORBIT       =      0    0 simple, 1 ext, 2 COOP (PROOUT), +10 PAW based schemes


 Dipole corrections
   LMONO  =      F    monopole corrections only (constant potential shift)
   LDIPOL =      F    correct potential (dipole corrections)
   IDIPOL =      0    1-x, 2-y, 3-z, 4-all directions 
   EPSILON=  1.0000000 bulk dielectric constant

 Exchange correlation treatment:
   GGA     =    --    GGA type
   LEXCH   =     8    internal setting for exchange type
   LIBXC   =     F    Libxc                    
   VOSKOWN =     0    Vosko Wilk Nusair interpolation
   EXXOEP  =     0    0=HF, 1=EXX-LHF (local Hartree Fock) 2=EXX OEP
   LHFCALC =     T    Hartree Fock is set to
   LSYMGRAD=     F    symmetrize gradient (conserves proper symmetry)
   PRECFOCK=normal    Normal, Fast or Accurate (Low or Medium for compatibility)
   LRHFCALC=     F    long range Hartree Fock
   LRSCOR  =     F    long range correlation only (use DFT for short range part)
   LTHOMAS =     F    Thomas Fermi screening in HF
   LMODELHF=     F    short range full HF, long range fraction AEXX
   LFOCKACE=     T    use Adeptively-Compressed-Exchange operator
   ENCUT4O =  -1.0   cutoff for four orbital integrals eV
   LMAXFOCK=     4    L truncation for augmentation on plane wave grid
   LMAXFOCKAE=  -1    L truncation for all-electron charge restoration on plane wave grid
   NMAXFOCKAE=   1    number of basis functions for all-electron charge restoration
   LFOCKAEDFT=     F  apply the AE augmentation even for DFT
   NKREDX  =     1    reduce k-point grid by
   NKREDY  =     1    reduce k-point grid by
   NKREDZ  =     1    reduce k-point grid by
   SHIFTRED=     F    shift reduced grid of Gamma
   HFKIDENT=     F    idential grid for each k-point
   ODDONLY =     F    use only odd q-grid points
   EVENONLY=     F    use only even q-grid points
   HFALPHA =   -1.0000 decay constant for conv. correction
   MCALPHA =    0.0000 extent of test-charge in conv. correction in multipole expansion
   AEXX    =    1.0000 exact exchange contribution
   HFSCREEN=    0.0000 screening length (either q_TF or 0.3 A-1)
   HFSCREENC=   0.0000 screening length for correlation (either q_TF or 0.3 A-1)
   HFRCUT  =    0.0000 spherical cutoff for potential kernel
   ALDAX   =    0.0000 LDA exchange part
   AGGAX   =    0.0000 GGA exchange part
   ALDAC   =    0.0000 LDA correlation
   AGGAC   =    0.0000 GGA correlation
   ENCUTFOCK=  -1.0 apply spherical cutoff to Coloumb kernel
   NBANDSGWLOW=     1    first orbital included in HF term
   NBLOCK_FOCK=    64    blocking factor in FOCK_ACC

 Linear response parameters
   LEPSILON=     F    determine dielectric tensor
   LRPA    =     F    only Hartree local field effects (RPA)
   LNABLA  =     F    use nabla operator in PAW spheres
   LVEL    =     F    velocity operator in full k-point grid
   CSHIFT  =0.1000    complex shift for real part using Kramers Kronig
   OMEGAMAX=  -1.0    maximum frequency
   DEG_THRESHOLD= 0.2000000E-02 threshold for treating states as degnerate
   RTIME   =   -0.100 relaxation time in fs
  (WPLASMAI=    0.000 imaginary part of plasma frequency in eV, 0.658/RTIME)
   DFIELD  = 0.0000000 0.0000000 0.0000000 field for delta impulse in time
 
  Optional k-point grid parameters
   LKPOINTS_OPT  =     F    use optional k-point grid
   KPOINTS_OPT_MODE=     1    mode for optional k-point grid
 
 Orbital magnetization related:
   ORBITALMAG=     F  switch on orbital magnetization
   LCHIMAG   =     F  perturbation theory with respect to B field
   DQ        =  0.001000  dq finite difference perturbation B field
   LLRAUG    =     F  two centre corrections for induced B field



--------------------------------------------------------------------------------------------------------


 Static calculation
 charge density and potential will be updated during run
 non-spin polarized calculation
 Subrot: only subspace diagonalization (rotation)
    band-by band algorithm
 perform sub-space diagonalisation
    before iterative eigenvector-optimisation
 Kerker-like  mixing scheme
 using additional bands         1122
 reciprocal scheme for non local part
 use partial core corrections
 calculate Harris-corrections to forces 
   (improved forces if not selfconsistent)
 use gradient corrections 
 use of overlap-Matrix (Vanderbilt PP)
 Methfessel and Paxton  Order N= 1 SIGMA  =   0.00


--------------------------------------------------------------------------------------------------------


  energy-cutoff  :      400.00
  volume of cell :      327.28
      direct lattice vectors                 reciprocal lattice vectors
     5.469713400  5.469713400  0.000000000     0.091412468  0.091412468 -0.091412468
     0.000000000  5.469713400  5.469713400    -0.091412468  0.091412468  0.091412468
     5.469713400  0.000000000  5.469713400     0.091412468 -0.091412468  0.091412468

  length of vectors
     7.735342873  7.735342873  7.735342873     0.158331039  0.158331039  0.158331039


 
 old parameters found on file WAVECAR:
  energy-cutoff  :      400.00
  volume of cell :      327.28
      direct lattice vectors                 reciprocal lattice vectors
     5.469713400  5.469713400  0.000000000     0.091412468  0.091412468 -0.091412468
     0.000000000  5.469713400  5.469713400    -0.091412468  0.091412468  0.091412468
     5.469713400  0.000000000  5.469713400     0.091412468 -0.091412468  0.091412468

  length of vectors

 
 k-points in units of 2pi/SCALE and weight: Automatic mesh                          
   0.00000000  0.00000000  0.00000000       1.000
 
 k-points in reciprocal lattice and weights: Automatic mesh                          
   0.00000000  0.00000000  0.00000000       1.000
 
 position of ions in fractional coordinates (direct lattice) 
   0.00137146  0.00137146  0.00137146
   0.49588561  0.00137146  0.00137146
   0.00137146  0.49588561  0.00137146
   0.49999946  0.49999946  0.00000162
   0.00137146  0.00137146  0.49588561
   0.49999946  0.00000162  0.49999946
   0.00000162  0.49999946  0.49999946
   0.49999946  0.49999946  0.49999946
   0.62478972  0.12521028  0.12521028
   0.12521028  0.62478972  0.12521028
   0.62478972  0.62478972  0.12521028
   0.12521028  0.12521028  0.62478972
   0.62478972  0.12521028  0.62478972
   0.12521028  0.62478972  0.62478972
   0.62500000  0.62500000  0.62500000
 
 position of ions in cartesian coordinates  (Angst):
   0.01500303  0.01500303  0.01500303
   2.71985367  2.71985367  0.01500303
   0.01500303  2.71985367  2.71985367
   2.73486260  5.46970750  2.73486260
   2.71985367  0.01500303  2.71985367
   5.46970750  2.73486260  2.73486260
   2.73486260  2.73486260  5.46970750
   5.46970750  5.46970750  5.46970750
   4.10228505  4.10228505  1.36972867
   1.36972867  4.10228505  4.10228505
   4.10228505  6.83484143  4.10228505
   4.10228505  1.36972867  4.10228505
   6.83484143  4.10228505  4.10228505
   4.10228505  4.10228505  6.83484143
   6.83714175  6.83714175  6.83714175
 


--------------------------------------------------------------------------------------------------------


 use serial FFT for orbitals x direction half grid
 k-point   1 :   0.0000 0.0000 0.0000  plane waves:    2981

 maximum and minimum number of plane-waves per node :      2981     2981

 maximum number of plane-waves:      2981
 maximum index in each direction: 
   IXMAX=   12   IYMAX=   12   IZMAX=   12
   IXMIN=    0   IYMIN=  -10   IZMIN=  -10


 serial   3D FFT for wavefunctions
 parallel 3D FFT for charge:
    minimum data exchange during FFTs selected (reduces bandwidth)

 
 Radii for the augmentation spheres in the non-local exchange
 for species   1 augmentation radius   1.405 (default was   1.124)
       energy cutoff for augmentation   1600.0
 Maximum index for augmentation-charges in exchange         2259
  SETUP_FOCK is finished

 total amount of memory used by VASP MPI-rank0    42385. kBytes
=======================================================================

   base      :      30000. kBytes
   nonl-proj :       1179. kBytes
   fftplans  :        558. kBytes
   grid      :       2897. kBytes
   one-center:        116. kBytes
   HF        :         64. kBytes
   nonlr-proj:       7415. kBytes
   wavefun   :        156. kBytes
 
     INWAV:  cpu time      0.4942: real time      0.5018
 charge density for first step will be calculated from the start-wavefunctions


--------------------------------------------------------------------------------------------------------


 Maximum index for augmentation-charges          499 (set IRDMAX)


--------------------------------------------------------------------------------------------------------


 initial charge from wavefunction
    FEWALD:  cpu time      0.0075: real time      0.0075


--------------------------------------- Iteration      1(   1)  ---------------------------------------


    POTLOK:  cpu time      0.2226: real time      0.2236
    SETDIJ:  cpu time      0.0213: real time      0.0217
    EDDIAG:  cpu time     31.9257: real time     32.0144
       DOS:  cpu time      0.0032: real time      0.0032
    --------------------------------------------
      LOOP:  cpu time     32.1728: real time     32.2630

 eigenvalue-minimisations  :     0
 total energy-change (2. order) :-0.1313264E+03  ( 0.0000000E+00)
 number of electron      59.9999980 magnetization 
 augmentation part       -3.2407112 magnetization 

 Free energy of the ion-electron system (eV)
  ---------------------------------------------------
  alpha Z        PSCENC =        41.88619531
  Ewald energy   TEWEN  =     -1640.06298675
  -Hartree energ DENC   =      -156.35006438
  -exchange      EXHF   =       444.04318635
  -V(xc)+E(xc)   XCENC  =         0.00000000
  PAW double counting   =      1933.86619100    -1937.29153956
  entropy T*S    EENTRO =         0.00000000
  eigenvalues    EBANDS =      -228.47499936
  atomic energy  EATOM  =      1411.05760457
  Solvation  Ediel_sol  =         0.00000000
  ---------------------------------------------------
  free energy    TOTEN  =      -131.32641282 eV

  energy without entropy =     -131.32641282  energy(sigma->0) =     -131.32641282
  exchange ACFDT corr.  =     -1325.07946317  see jH, gK, PRB 81, 115126


--------------------------------------------------------------------------------------------------------




 average (electrostatic) potential at core
  the test charge radii are     1.1243
  (the norm of the test charge is              1.0000)
       1 -50.3652       2 -52.1757       3 -52.1756       4 -50.5478       5 -52.1759
       6 -50.5478       7 -50.5478       8 -50.6265       9 -50.6593      10 -50.6593
      11 -51.1827      12 -50.6594      13 -51.1827      14 -51.1827      15 -50.4200
 
 
 
 E-fermi :   4.7655     XC(G=0):   0.0000     alpha+bet :-10.6543

 Fermi energy:         4.7655190051

 k-point     1 :       0.0000    0.0000    0.0000
  band No.  band energies     occupation 
      1     -13.4605      2.00000
      2     -10.4988      2.00000
      3     -10.4988      2.00000
      4     -10.4492      2.00000
      5      -9.6253      2.00000
      6      -7.9394      2.00000
      7      -7.9394      2.00000
      8      -7.7509      2.00000
      9      -7.7508      2.00000
     10      -7.6513      2.00000
     11      -6.7407      2.00000
     12      -6.1291      2.00000
     13      -6.1291      2.00000
     14      -6.0760      2.00000
     15      -1.6451      2.00000
     16      -1.3315      2.00000
     17      -1.2617      2.00000
     18      -1.2617      2.00000
     19      -0.7466      2.00000
     20      -0.7152      2.00000
     21      -0.7152      2.00000
     22       0.5184      2.00000
     23       0.5184      2.00000
     24       0.5769      2.00000
     25       0.6728      2.00000
     26       0.6728      2.00000
     27       1.4906      2.00000
     28       1.6235      2.00000
     29       1.6235      2.00000
     30       4.3820      2.00000
     31      10.1720      0.00000
     32      10.1727      0.00000
     33      10.4529      0.00000
     34      10.4533      0.00000
     35      10.6189      0.00000
     36      10.6768      0.00000
     37      10.7852      0.00000
     38      10.7855      0.00000
     39      11.5894      0.00000
     40      11.5917      0.00000
     41      11.6273      0.00000
     42      12.9160      0.00000
     43      13.0106      0.00000
     44      13.0170      0.00000
     45      13.0192      0.00000
     46      13.4532      0.00000
     47      13.5032      0.00000
     48      13.5035      0.00000
     49      13.7663      0.00000
     50      13.7665      0.00000
     51      14.5524      0.00000
     52      14.6057      0.00000
     53      14.6060      0.00000
     54      15.3497      0.00000
     55      17.9163      0.00000
     56      18.1111      0.00000
     57      18.1878      0.00000
     58      18.2176      0.00000
     59      18.4543      0.00000
     60      18.8347      0.00000
     61      18.8380      0.00000
     62      21.8297      0.00000
     63      21.8366      0.00000
     64      21.8870      0.00000
     65      21.9395      0.00000
     66      21.9435      0.00000
     67      21.9573      0.00000
     68      21.9772      0.00000
     69      21.9831      0.00000
     70      21.9858      0.00000
     71      22.0752      0.00000
     72      22.0866      0.00000
     73      22.1431      0.00000
     74      22.2125      0.00000
     75      22.2270      0.00000
     76      22.2482      0.00000
     77      22.2558      0.00000
     78      22.2732      0.00000
     79      22.2871      0.00000
     80      22.3692      0.00000
     81      22.3859      0.00000
     82      22.5734      0.00000
     83      22.6836      0.00000
     84      22.6891      0.00000
     85      22.6958      0.00000
     86      22.9348      0.00000
     87      22.9385      0.00000
     88      22.9893      0.00000
     89      23.2516      0.00000
     90      23.2613      0.00000
     91      23.5234      0.00000
     92      23.5316      0.00000
     93      23.6946      0.00000
     94      24.2683      0.00000
     95      24.2747      0.00000
     96      24.2759      0.00000
     97      24.2808      0.00000
     98      24.3039      0.00000
     99      24.3996      0.00000
    100      24.4063      0.00000
    101      24.6290      0.00000
    102      24.6402      0.00000
    103      24.9712      0.00000
    104      25.0310      0.00000
    105      25.0414      0.00000
    106      25.0470      0.00000
    107      25.5147      0.00000
    108      25.5757      0.00000
    109      25.5924      0.00000
    110      26.1738      0.00000
    111      27.6640      0.00000
    112      27.6964      0.00000
    113      27.8247      0.00000
    114      30.8497      0.00000
    115      30.9753      0.00000
    116      31.0146      0.00000
    117      31.0542      0.00000
    118      31.3984      0.00000
    119      31.4239      0.00000
    120      31.4905      0.00000
    121      31.5435      0.00000
    122      31.5722      0.00000
    123      31.5947      0.00000
    124      31.6758      0.00000
    125      31.7183      0.00000
    126      32.0390      0.00000
    127      32.0701      0.00000
    128      32.1326      0.00000
    129      32.1816      0.00000
    130      32.2744      0.00000
    131      32.3118      0.00000
    132      32.3200      0.00000
    133      32.4170      0.00000
    134      32.6393      0.00000
    135      32.7092      0.00000
    136      32.7409      0.00000
    137      33.0278      0.00000
    138      33.0483      0.00000
    139      33.0737      0.00000
    140      33.3535      0.00000
    141      33.3938      0.00000
    142      33.4750      0.00000
    143      33.5107      0.00000
    144      33.5962      0.00000
    145      33.7710      0.00000
    146      34.0498      0.00000
    147      34.1048      0.00000
    148      34.1125      0.00000
    149      34.1357      0.00000
    150      34.1527      0.00000
    151      34.2486      0.00000
    152      34.4511      0.00000
    153      34.4842      0.00000
    154      34.9977      0.00000
    155      35.0552      0.00000
    156      35.0719      0.00000
    157      35.6873      0.00000
    158      35.7284      0.00000
    159      35.7476      0.00000
    160      36.1930      0.00000
    161      36.2491      0.00000
    162      37.0698      0.00000
    163      37.0971      0.00000
    164      37.1633      0.00000
    165      38.0045      0.00000
    166      38.3455      0.00000
    167      38.7449      0.00000
    168      38.8547      0.00000
    169      38.9699      0.00000
    170      39.0004      0.00000
    171      39.4516      0.00000
    172      39.5211      0.00000
    173      39.5836      0.00000
    174      39.9017      0.00000
    175      39.9422      0.00000
    176      40.0076      0.00000
    177      40.0273      0.00000
    178      40.0471      0.00000
    179      40.0642      0.00000
    180      40.1325      0.00000
    181      40.1575      0.00000
    182      40.2224      0.00000
    183      40.3633      0.00000
    184      40.3948      0.00000
    185      40.4487      0.00000
    186      41.0492      0.00000
    187      41.1123      0.00000
    188      41.1940      0.00000
    189      41.2774      0.00000
    190      41.3147      0.00000
    191      41.3432      0.00000
    192      41.4481      0.00000
    193      41.4961      0.00000
    194      41.5737      0.00000
    195      41.8211      0.00000
    196      41.8362      0.00000
    197      42.2881      0.00000
    198      42.3086      0.00000
    199      42.3619      0.00000
    200      42.3680      0.00000
    201      42.4841      0.00000
    202      42.5921      0.00000
    203      43.4857      0.00000
    204      43.5111      0.00000
    205      43.6847      0.00000
    206      44.1497      0.00000
    207      44.5975      0.00000
    208      44.7196      0.00000
    209      44.7298      0.00000
    210      45.4850      0.00000
    211      45.5292      0.00000
    212      45.5983      0.00000
    213      46.2593      0.00000
    214      46.3172      0.00000
    215      46.3396      0.00000
    216      46.5693      0.00000
    217      46.5752      0.00000
    218      46.6095      0.00000
    219      46.6419      0.00000
    220      46.6829      0.00000
    221      46.8900      0.00000
    222      46.9027      0.00000
    223      46.9941      0.00000
    224      47.2523      0.00000
    225      47.2633      0.00000
    226      47.3177      0.00000
    227      47.3595      0.00000
    228      47.4738      0.00000
    229      47.4832      0.00000
    230      47.5132      0.00000
    231      47.5794      0.00000
    232      47.6589      0.00000
    233      47.6954      0.00000
    234      47.7259      0.00000
    235      47.7755      0.00000
    236      47.8180      0.00000
    237      48.2211      0.00000
    238      48.3108      0.00000
    239      48.4208      0.00000
    240      48.4302      0.00000
    241      48.4595      0.00000
    242      48.7776      0.00000
    243      48.9008      0.00000
    244      49.1000      0.00000
    245      49.5161      0.00000
    246      49.5431      0.00000
    247      49.6036      0.00000
    248      49.6334      0.00000
    249      49.6808      0.00000
    250      50.5945      0.00000
    251      50.6899      0.00000
    252      50.7170      0.00000
    253      50.7814      0.00000
    254      50.8549      0.00000
    255      50.8587      0.00000
    256      51.0333      0.00000
    257      51.1134      0.00000
    258      51.2651      0.00000
    259      51.6544      0.00000
    260      51.7654      0.00000
    261      51.8255      0.00000
    262      51.8767      0.00000
    263      51.9363      0.00000
    264      52.0007      0.00000
    265      52.0368      0.00000
    266      52.0673      0.00000
    267      52.1533      0.00000
    268      52.1849      0.00000
    269      53.1434      0.00000
    270      53.1483      0.00000
    271      53.4575      0.00000
    272      53.4915      0.00000
    273      53.5690      0.00000
    274      53.6522      0.00000
    275      55.0413      0.00000
    276      55.2010      0.00000
    277      55.5054      0.00000
    278      55.5949      0.00000
    279      55.7083      0.00000
    280      55.8470      0.00000
    281      55.9984      0.00000
    282      56.0651      0.00000
    283      56.1403      0.00000
    284      56.1500      0.00000
    285      56.2048      0.00000
    286      56.2992      0.00000
    287      56.3801      0.00000
    288      56.4403      0.00000
    289      56.5401      0.00000
    290      56.5684      0.00000
    291      56.7232      0.00000
    292      56.7743      0.00000
    293      56.8671      0.00000
    294      57.0311      0.00000
    295      57.0466      0.00000
    296      57.1085      0.00000
    297      57.1612      0.00000
    298      57.2307      0.00000
    299      57.3081      0.00000
    300      57.4329      0.00000
    301      57.4422      0.00000
    302      57.5082      0.00000
    303      57.6314      0.00000
    304      57.7091      0.00000
    305      57.8682      0.00000
    306      57.9019      0.00000
    307      57.9797      0.00000
    308      58.1429      0.00000
    309      58.2061      0.00000
    310      58.2391      0.00000
    311      58.3817      0.00000
    312      58.4901      0.00000
    313      58.5857      0.00000
    314      58.7259      0.00000
    315      58.9521      0.00000
    316      59.0527      0.00000
    317      59.0880      0.00000
    318      59.1413      0.00000
    319      59.1877      0.00000
    320      59.2634      0.00000
    321      59.5062      0.00000
    322      59.6193      0.00000
    323      59.6927      0.00000
    324      60.0407      0.00000
    325      60.4125      0.00000
    326      60.7406      0.00000
    327      61.0086      0.00000
    328      61.1327      0.00000
    329      61.3288      0.00000
    330      61.5640      0.00000
    331      61.8590      0.00000
    332      61.9403      0.00000
    333      62.2246      0.00000
    334      62.3118      0.00000
    335      62.5705      0.00000
    336      62.6688      0.00000
    337      63.2758      0.00000
    338      63.3893      0.00000
    339      63.5217      0.00000
    340      63.5297      0.00000
    341      63.5721      0.00000
    342      63.6396      0.00000
    343      63.6547      0.00000
    344      63.7992      0.00000
    345      64.6798      0.00000
    346      64.9187      0.00000
    347      64.9992      0.00000
    348      65.0252      0.00000
    349      65.0586      0.00000
    350      65.1136      0.00000
    351      65.1894      0.00000
    352      65.2094      0.00000
    353      65.2577      0.00000
    354      65.3572      0.00000
    355      65.4236      0.00000
    356      65.5344      0.00000
    357      65.5606      0.00000
    358      65.6424      0.00000
    359      65.7222      0.00000
    360      65.9130      0.00000
    361      66.3757      0.00000
    362      66.6316      0.00000
    363      66.6503      0.00000
    364      66.7436      0.00000
    365      66.8324      0.00000
    366      67.4706      0.00000
    367      67.5292      0.00000
    368      67.5480      0.00000
    369      67.8531      0.00000
    370      68.7149      0.00000
    371      69.3835      0.00000
    372      70.0567      0.00000
    373      70.0709      0.00000
    374      70.3551      0.00000
    375      70.4579      0.00000
    376      70.5880      0.00000
    377      70.8820      0.00000
    378      71.0486      0.00000
    379      71.1921      0.00000
    380      71.4998      0.00000
    381      71.5906      0.00000
    382      71.6311      0.00000
    383      71.8870      0.00000
    384      71.9801      0.00000
    385      72.0610      0.00000
    386      72.3274      0.00000
    387      72.3894      0.00000
    388      72.5203      0.00000
    389      72.6348      0.00000
    390      72.6886      0.00000
    391      72.9005      0.00000
    392      73.0339      0.00000
    393      73.2879      0.00000
    394      73.3217      0.00000
    395      73.3565      0.00000
    396      73.4685      0.00000
    397      73.5823      0.00000
    398      73.6003      0.00000
    399      73.6787      0.00000
    400      73.8133      0.00000
    401      74.1197      0.00000
    402      74.2412      0.00000
    403      74.4224      0.00000
    404      74.5224      0.00000
    405      74.6183      0.00000
    406      74.6452      0.00000
    407      74.6914      0.00000
    408      74.8698      0.00000
    409      74.9224      0.00000
    410      75.0139      0.00000
    411      75.0781      0.00000
    412      75.1130      0.00000
    413      75.2176      0.00000
    414      75.2783      0.00000
    415      75.3947      0.00000
    416      75.4666      0.00000
    417      75.5373      0.00000
    418      75.5785      0.00000
    419      75.6141      0.00000
    420      75.6434      0.00000
    421      75.7296      0.00000
    422      75.7888      0.00000
    423      75.8896      0.00000
    424      75.9695      0.00000
    425      76.0123      0.00000
    426      76.1870      0.00000
    427      76.3554      0.00000
    428      76.3916      0.00000
    429      76.4458      0.00000
    430      76.4978      0.00000
    431      76.5535      0.00000
    432      76.6469      0.00000
    433      76.7722      0.00000
    434      76.8456      0.00000
    435      76.9729      0.00000
    436      77.0026      0.00000
    437      77.0888      0.00000
    438      77.2627      0.00000
    439      77.3408      0.00000
    440      77.4154      0.00000
    441      77.6021      0.00000
    442      77.7146      0.00000
    443      77.9363      0.00000
    444      78.0591      0.00000
    445      78.1039      0.00000
    446      78.2823      0.00000
    447      78.4730      0.00000
    448      78.5723      0.00000
    449      78.6657      0.00000
    450      78.9157      0.00000
    451      78.9834      0.00000
    452      79.2258      0.00000
    453      79.3409      0.00000
    454      79.4538      0.00000
    455      79.4925      0.00000
    456      79.6065      0.00000
    457      79.7377      0.00000
    458      79.7853      0.00000
    459      79.8445      0.00000
    460      80.0931      0.00000
    461      80.1221      0.00000
    462      80.1434      0.00000
    463      80.2819      0.00000
    464      80.4680      0.00000
    465      80.4770      0.00000
    466      80.5455      0.00000
    467      80.9839      0.00000
    468      81.1074      0.00000
    469      81.1792      0.00000
    470      81.2505      0.00000
    471      81.6820      0.00000
    472      81.7927      0.00000
    473      81.9367      0.00000
    474      82.0774      0.00000
    475      82.3122      0.00000
    476      82.4771      0.00000
    477      82.7215      0.00000
    478      82.7768      0.00000
    479      82.8641      0.00000
    480      83.0370      0.00000
    481      83.1758      0.00000
    482      83.2268      0.00000
    483      83.3172      0.00000
    484      83.5911      0.00000
    485      83.6035      0.00000
    486      83.8456      0.00000
    487      83.9132      0.00000
    488      83.9499      0.00000
    489      84.0993      0.00000
    490      84.2002      0.00000
    491      84.4207      0.00000
    492      84.5237      0.00000
    493      84.8055      0.00000
    494      84.8348      0.00000
    495      85.0041      0.00000
    496      85.1745      0.00000
    497      85.2120      0.00000
    498      85.2512      0.00000
    499      85.3642      0.00000
    500      85.6202      0.00000
    501      85.8181      0.00000
    502      85.9342      0.00000
    503      85.9812      0.00000
    504      86.1641      0.00000
    505      86.3547      0.00000
    506      86.4330      0.00000
    507      86.7646      0.00000
    508      86.9087      0.00000
    509      87.1177      0.00000
    510      87.2376      0.00000
    511      87.6003      0.00000
    512      88.6523      0.00000
    513      89.3553      0.00000
    514      89.4487      0.00000
    515      89.6884      0.00000
    516      90.0451      0.00000
    517      90.1752      0.00000
    518      90.3089      0.00000
    519      90.4428      0.00000
    520      90.4727      0.00000
    521      90.6231      0.00000
    522      90.6555      0.00000
    523      90.7232      0.00000
    524      90.8318      0.00000
    525      90.9566      0.00000
    526      91.0961      0.00000
    527      91.1158      0.00000
    528      91.1983      0.00000
    529      91.3227      0.00000
    530      91.3786      0.00000
    531      91.4729      0.00000
    532      91.6680      0.00000
    533      91.7013      0.00000
    534      91.8613      0.00000
    535      91.8980      0.00000
    536      91.9260      0.00000
    537      92.1425      0.00000
    538      92.3167      0.00000
    539      92.3576      0.00000
    540      92.3755      0.00000
    541      92.3947      0.00000
    542      92.4892      0.00000
    543      92.5849      0.00000
    544      92.7282      0.00000
    545      92.8566      0.00000
    546      92.9544      0.00000
    547      93.0378      0.00000
    548      93.0661      0.00000
    549      93.1352      0.00000
    550      93.5168      0.00000
    551      93.5804      0.00000
    552      93.6582      0.00000
    553      93.7201      0.00000
    554      93.7882      0.00000
    555      93.8454      0.00000
    556      93.8870      0.00000
    557      94.0720      0.00000
    558      94.0987      0.00000
    559      94.3074      0.00000
    560      94.3795      0.00000
    561      94.4223      0.00000
    562      94.6777      0.00000
    563      94.7482      0.00000
    564      94.8002      0.00000
    565      94.8837      0.00000
    566      94.9002      0.00000
    567      95.0600      0.00000
    568      95.1295      0.00000
    569      95.1710      0.00000
    570      95.3510      0.00000
    571      95.3876      0.00000
    572      95.4726      0.00000
    573      95.5572      0.00000
    574      95.6619      0.00000
    575      95.9358      0.00000
    576      95.9538      0.00000
    577      96.0318      0.00000
    578      96.1129      0.00000
    579      96.2561      0.00000
    580      96.4108      0.00000
    581      96.4764      0.00000
    582      96.6072      0.00000
    583      96.6493      0.00000
    584      96.7818      0.00000
    585      96.8454      0.00000
    586      96.9250      0.00000
    587      96.9569      0.00000
    588      97.0820      0.00000
    589      97.4222      0.00000
    590      97.5021      0.00000
    591      97.7870      0.00000
    592      97.8322      0.00000
    593      97.9961      0.00000
    594      98.0337      0.00000
    595      98.1580      0.00000
    596      98.3058      0.00000
    597      98.4721      0.00000
    598      98.4895      0.00000
    599      98.8269      0.00000
    600      98.8964      0.00000
    601      99.1235      0.00000
    602      99.2469      0.00000
    603      99.3757      0.00000
    604      99.7312      0.00000
    605     100.0195      0.00000
    606     100.2651      0.00000
    607     100.4625      0.00000
    608     100.5421      0.00000
    609     100.6643      0.00000
    610     100.8613      0.00000
    611     101.0079      0.00000
    612     101.1078      0.00000
    613     101.1826      0.00000
    614     101.2329      0.00000
    615     101.3652      0.00000
    616     101.4305      0.00000
    617     101.9978      0.00000
    618     102.0980      0.00000
    619     102.2120      0.00000
    620     102.3845      0.00000
    621     102.4626      0.00000
    622     102.5817      0.00000
    623     102.6813      0.00000
    624     102.7263      0.00000
    625     102.8770      0.00000
    626     102.9599      0.00000
    627     103.0723      0.00000
    628     103.2105      0.00000
    629     103.4978      0.00000
    630     103.6243      0.00000
    631     103.7439      0.00000
    632     103.9349      0.00000
    633     104.0470      0.00000
    634     104.2055      0.00000
    635     104.2247      0.00000
    636     104.5563      0.00000
    637     104.6301      0.00000
    638     104.6958      0.00000
    639     104.7609      0.00000
    640     104.9005      0.00000
    641     104.9433      0.00000
    642     105.0471      0.00000
    643     105.2294      0.00000
    644     105.4831      0.00000
    645     105.7103      0.00000
    646     105.8608      0.00000
    647     105.8845      0.00000
    648     105.9762      0.00000
    649     106.0969      0.00000
    650     106.3678      0.00000
    651     106.5174      0.00000
    652     106.5273      0.00000
    653     106.6556      0.00000
    654     106.8943      0.00000
    655     106.9225      0.00000
    656     106.9359      0.00000
    657     106.9858      0.00000
    658     107.2507      0.00000
    659     107.3287      0.00000
    660     107.4750      0.00000
    661     107.5781      0.00000
    662     107.6199      0.00000
    663     108.0397      0.00000
    664     108.2441      0.00000
    665     108.2634      0.00000
    666     108.4359      0.00000
    667     108.5679      0.00000
    668     108.6079      0.00000
    669     108.7150      0.00000
    670     108.9076      0.00000
    671     109.0404      0.00000
    672     109.1378      0.00000
    673     109.4205      0.00000
    674     109.5339      0.00000
    675     109.6110      0.00000
    676     109.7470      0.00000
    677     110.2110      0.00000
    678     110.3253      0.00000
    679     110.5425      0.00000
    680     110.6129      0.00000
    681     110.7023      0.00000
    682     110.8817      0.00000
    683     111.0121      0.00000
    684     111.2023      0.00000
    685     111.3043      0.00000
    686     111.4266      0.00000
    687     111.6203      0.00000
    688     111.8182      0.00000
    689     111.9259      0.00000
    690     112.1006      0.00000
    691     112.1228      0.00000
    692     112.2334      0.00000
    693     112.5320      0.00000
    694     112.7257      0.00000
    695     112.8858      0.00000
    696     113.1175      0.00000
    697     113.3534      0.00000
    698     113.5841      0.00000
    699     113.7643      0.00000
    700     113.8785      0.00000
    701     114.0898      0.00000
    702     114.4377      0.00000
    703     114.5378      0.00000
    704     114.6559      0.00000
    705     114.7028      0.00000
    706     114.7289      0.00000
    707     114.9278      0.00000
    708     115.0370      0.00000
    709     115.1176      0.00000
    710     115.2517      0.00000
    711     115.3982      0.00000
    712     115.5531      0.00000
    713     115.6999      0.00000
    714     115.8180      0.00000
    715     115.8544      0.00000
    716     115.9490      0.00000
    717     116.2398      0.00000
    718     116.3821      0.00000
    719     116.5627      0.00000
    720     116.6497      0.00000
    721     116.7784      0.00000
    722     116.7911      0.00000
    723     116.9485      0.00000
    724     117.0451      0.00000
    725     117.1212      0.00000
    726     117.1966      0.00000
    727     117.2649      0.00000
    728     117.3254      0.00000
    729     117.3649      0.00000
    730     117.4704      0.00000
    731     117.5557      0.00000
    732     117.6218      0.00000
    733     117.6613      0.00000
    734     117.7358      0.00000
    735     117.8469      0.00000
    736     117.9886      0.00000
    737     118.0708      0.00000
    738     118.3264      0.00000
    739     118.4008      0.00000
    740     118.5529      0.00000
    741     118.6413      0.00000
    742     118.7332      0.00000
    743     118.7865      0.00000
    744     118.9425      0.00000
    745     119.2176      0.00000
    746     119.2455      0.00000
    747     119.3158      0.00000
    748     119.4538      0.00000
    749     119.5157      0.00000
    750     119.6534      0.00000
    751     119.7246      0.00000
    752     119.7461      0.00000
    753     119.9038      0.00000
    754     119.9934      0.00000
    755     120.0202      0.00000
    756     120.0605      0.00000
    757     120.2956      0.00000
    758     120.3628      0.00000
    759     120.5483      0.00000
    760     120.6759      0.00000
    761     120.8332      0.00000
    762     120.8489      0.00000
    763     120.8935      0.00000
    764     120.9526      0.00000
    765     121.0819      0.00000
    766     121.1233      0.00000
    767     121.2512      0.00000
    768     121.4618      0.00000
    769     121.5645      0.00000
    770     121.6914      0.00000
    771     121.7664      0.00000
    772     121.8891      0.00000
    773     122.0372      0.00000
    774     122.1406      0.00000
    775     122.2047      0.00000
    776     122.2462      0.00000
    777     122.3390      0.00000
    778     122.5703      0.00000
    779     122.7378      0.00000
    780     122.8648      0.00000
    781     123.0628      0.00000
    782     123.1899      0.00000
    783     123.2977      0.00000
    784     123.4129      0.00000
    785     123.5551      0.00000
    786     123.6597      0.00000
    787     123.7161      0.00000
    788     123.9546      0.00000
    789     124.0559      0.00000
    790     124.3512      0.00000
    791     124.3773      0.00000
    792     124.5145      0.00000
    793     124.9323      0.00000
    794     125.0168      0.00000
    795     125.2410      0.00000
    796     125.4237      0.00000
    797     125.4889      0.00000
    798     125.5584      0.00000
    799     125.7960      0.00000
    800     125.9459      0.00000
    801     126.0486      0.00000
    802     126.1340      0.00000
    803     126.3716      0.00000
    804     126.4955      0.00000
    805     126.5669      0.00000
    806     126.6487      0.00000
    807     126.9767      0.00000
    808     127.1868      0.00000
    809     127.3695      0.00000
    810     127.5908      0.00000
    811     127.7819      0.00000
    812     127.9072      0.00000
    813     128.0734      0.00000
    814     128.2633      0.00000
    815     128.6023      0.00000
    816     128.7143      0.00000
    817     129.3836      0.00000
    818     129.4392      0.00000
    819     129.7223      0.00000
    820     129.8304      0.00000
    821     130.0972      0.00000
    822     130.2606      0.00000
    823     130.3451      0.00000
    824     130.4152      0.00000
    825     130.5804      0.00000
    826     130.6925      0.00000
    827     130.7599      0.00000
    828     130.9169      0.00000
    829     131.0187      0.00000
    830     131.1419      0.00000
    831     131.3436      0.00000
    832     131.4116      0.00000
    833     131.7181      0.00000
    834     131.7856      0.00000
    835     131.9780      0.00000
    836     132.2585      0.00000
    837     132.2843      0.00000
    838     132.4886      0.00000
    839     132.7207      0.00000
    840     132.8493      0.00000
    841     133.1155      0.00000
    842     133.4286      0.00000
    843     133.6793      0.00000
    844     133.9625      0.00000
    845     133.9905      0.00000
    846     134.4601      0.00000
    847     134.6601      0.00000
    848     134.9402      0.00000
    849     135.0788      0.00000
    850     135.3818      0.00000
    851     135.4885      0.00000
    852     135.7941      0.00000
    853     135.8250      0.00000
    854     135.9922      0.00000
    855     136.3367      0.00000
    856     136.5457      0.00000
    857     136.9784      0.00000
    858     137.4084      0.00000
    859     137.5607      0.00000
    860     137.6870      0.00000
    861     137.8552      0.00000
    862     138.2307      0.00000
    863     138.3465      0.00000
    864     138.5452      0.00000
    865     138.6110      0.00000
    866     138.8169      0.00000
    867     138.9482      0.00000
    868     139.0498      0.00000
    869     139.3956      0.00000
    870     139.4927      0.00000
    871     139.9240      0.00000
    872     140.1803      0.00000
    873     140.2290      0.00000
    874     140.2855      0.00000
    875     140.3594      0.00000
    876     140.5773      0.00000
    877     140.7344      0.00000
    878     140.7869      0.00000
    879     141.1914      0.00000
    880     141.4167      0.00000
    881     141.6659      0.00000
    882     141.7769      0.00000
    883     142.3313      0.00000
    884     142.6624      0.00000
    885     142.8566      0.00000
    886     143.1950      0.00000
    887     143.3198      0.00000
    888     143.5752      0.00000
    889     143.8343      0.00000
    890     144.0654      0.00000
    891     144.3544      0.00000
    892     144.8370      0.00000
    893     145.0307      0.00000
    894     145.4032      0.00000
    895     145.7470      0.00000
    896     145.9505      0.00000
    897     146.2875      0.00000
    898     146.6138      0.00000
    899     147.0708      0.00000
    900     147.1696      0.00000
    901     147.9175      0.00000
    902     148.5293      0.00000
    903     148.8663      0.00000
    904     149.2412      0.00000
    905     150.4578      0.00000
    906     150.5806      0.00000
    907     151.5048      0.00000
    908     151.5209      0.00000
    909     152.4816      0.00000
    910     152.5820      0.00000
    911     153.4404      0.00000
    912     153.6798      0.00000
    913     153.8220      0.00000
    914     155.1494      0.00000
    915     155.4944      0.00000
    916     156.1634      0.00000
    917     156.4723      0.00000
    918     156.8115      0.00000
    919     157.6344      0.00000
    920     158.8090      0.00000
    921     159.9859      0.00000
    922     160.7308      0.00000
    923     164.1390      0.00000
    924     165.3187      0.00000
    925     166.2384      0.00000
    926     167.6658      0.00000
    927     169.7352      0.00000
    928     170.6520      0.00000
    929     171.4430      0.00000
    930     173.3133      0.00000
    931     131.7879      0.00000
    932     132.1595      0.00000
    933     132.1934      0.00000
    934     132.8223      0.00000
    935     133.0244      0.00000
    936     133.4187      0.00000
    937     133.8341      0.00000
    938     133.8665      0.00000
    939     133.9380      0.00000
    940     134.3750      0.00000
    941     134.3971      0.00000
    942     134.6837      0.00000
    943     134.8994      0.00000
    944     134.9109      0.00000
    945     134.9256      0.00000
    946     134.9496      0.00000
    947     135.0256      0.00000
    948     135.0869      0.00000
    949     135.2311      0.00000
    950     135.2351      0.00000
    951     135.2960      0.00000
    952     135.3002      0.00000
    953     135.3230      0.00000
    954     135.4004      0.00000
    955     135.4363      0.00000
    956     135.4473      0.00000
    957     135.5864      0.00000
    958     135.6864      0.00000
    959     135.7109      0.00000
    960     135.7278      0.00000
    961     135.7638      0.00000
    962     135.8607      0.00000
    963     135.9680      0.00000
    964     135.9929      0.00000
    965     136.0307      0.00000
    966     136.0449      0.00000
    967     136.1017      0.00000
    968     136.1048      0.00000
    969     136.1073      0.00000
    970     136.1186      0.00000
    971     136.1535      0.00000
    972     136.1583      0.00000
    973     136.1750      0.00000
    974     136.2538      0.00000
    975     136.2779      0.00000
    976     136.2853      0.00000
    977     136.3287      0.00000
    978     136.3308      0.00000
    979     136.3628      0.00000
    980     136.3980      0.00000
    981     136.4481      0.00000
    982     136.4677      0.00000
    983     136.4828      0.00000
    984     136.4921      0.00000
    985     136.5319      0.00000
    986     136.6016      0.00000
    987     136.6249      0.00000
    988     136.6384      0.00000
    989     136.6645      0.00000
    990     136.7115      0.00000
    991     136.7424      0.00000
    992     136.8068      0.00000
    993     136.8427      0.00000
    994     136.8667      0.00000
    995     136.8840      0.00000
    996     136.9388      0.00000
    997     136.9739      0.00000
    998     136.9839      0.00000
    999     137.0308      0.00000
   1000     137.0342      0.00000
   1001     137.0438      0.00000
   1002     137.0869      0.00000
   1003     137.1329      0.00000
   1004     137.1420      0.00000
   1005     137.1532      0.00000
   1006     137.1586      0.00000
   1007     137.1773      0.00000
   1008     137.2364      0.00000
   1009     137.2375      0.00000
   1010     137.2511      0.00000
   1011     137.3071      0.00000
   1012     137.3454      0.00000
   1013     137.3565      0.00000
   1014     137.3617      0.00000
   1015     137.3707      0.00000
   1016     137.3764      0.00000
   1017     137.3887      0.00000
   1018     137.3962      0.00000
   1019     137.4248      0.00000
   1020     137.4538      0.00000
   1021     137.4820      0.00000
   1022     137.5419      0.00000
   1023     137.5460      0.00000
   1024     137.5480      0.00000
   1025     137.5853      0.00000
   1026     137.6317      0.00000
   1027     137.6387      0.00000
   1028     137.6574      0.00000
   1029     137.6701      0.00000
   1030     137.7195      0.00000
   1031     137.7289      0.00000
   1032     137.7734      0.00000
   1033     137.7953      0.00000
   1034     137.8041      0.00000
   1035     137.9495      0.00000
   1036     138.0310      0.00000
   1037     138.0334      0.00000
   1038     138.0595      0.00000
   1039     138.1225      0.00000
   1040     138.1481      0.00000
   1041     138.1518      0.00000
   1042     138.1917      0.00000
   1043     138.2034      0.00000
   1044     138.2330      0.00000
   1045     138.2407      0.00000
   1046     138.2478      0.00000
   1047     138.2874      0.00000
   1048     138.3451      0.00000
   1049     138.3467      0.00000
   1050     138.4896      0.00000
   1051     138.5424      0.00000
   1052     138.5475      0.00000
   1053     138.5882      0.00000
   1054     138.5932      0.00000
   1055     138.6337      0.00000
   1056     138.6352      0.00000
   1057     138.6402      0.00000
   1058     138.7100      0.00000
   1059     138.7304      0.00000
   1060     138.7515      0.00000
   1061     138.8191      0.00000
   1062     138.8272      0.00000
   1063     138.8452      0.00000
   1064     138.8501      0.00000
   1065     138.9129      0.00000
   1066     138.9996      0.00000
   1067     139.0193      0.00000
   1068     139.1205      0.00000
   1069     139.2045      0.00000
   1070     139.2357      0.00000
   1071     139.2387      0.00000
   1072     139.3071      0.00000
   1073     139.3196      0.00000
   1074     139.3322      0.00000
   1075     139.3324      0.00000
   1076     139.3485      0.00000
   1077     139.4724      0.00000
   1078     139.5542      0.00000
   1079     139.5621      0.00000
   1080     139.5754      0.00000
   1081     139.5931      0.00000
   1082     139.6088      0.00000
   1083     139.6715      0.00000
   1084     139.8162      0.00000
   1085     139.8221      0.00000
   1086     139.9100      0.00000
   1087     139.9245      0.00000
   1088     139.9283      0.00000
   1089     139.9295      0.00000
   1090     139.9450      0.00000
   1091     139.9626      0.00000
   1092     140.0516      0.00000
   1093     140.0989      0.00000
   1094     140.1036      0.00000
   1095     140.2513      0.00000
   1096     140.2862      0.00000
   1097     140.3507      0.00000
   1098     140.3841      0.00000
   1099     140.4671      0.00000
   1100     140.5696      0.00000
   1101     140.6423      0.00000
   1102     140.6523      0.00000
   1103     140.6600      0.00000
   1104     140.6680      0.00000
   1105     140.7481      0.00000
   1106     140.8290      0.00000
   1107     140.8868      0.00000
   1108     140.8944      0.00000
   1109     140.9462      0.00000
   1110     141.1727      0.00000
   1111     141.2636      0.00000
   1112     141.3977      0.00000
   1113     141.5024      0.00000
   1114     141.5517      0.00000
   1115     141.6386      0.00000
   1116     141.6727      0.00000
   1117     141.7787      0.00000
   1118     141.9027      0.00000
   1119     141.9729      0.00000
   1120     142.0421      0.00000
   1121     142.0455      0.00000
   1122     142.1423      0.00000
   1123     142.2359      0.00000
   1124     142.2820      0.00000
   1125     142.2998      0.00000
   1126     142.3857      0.00000
   1127     142.4383      0.00000
   1128     142.5279      0.00000
   1129     142.5403      0.00000
   1130     142.8417      0.00000
   1131     142.9108      0.00000
   1132     142.9613      0.00000
   1133     143.1186      0.00000
   1134     143.1207      0.00000
   1135     143.1437      0.00000
   1136     143.1770      0.00000
   1137     143.2231      0.00000
   1138     143.2260      0.00000
   1139     143.4253      0.00000
   1140     143.5596      0.00000
   1141     143.5651      0.00000
   1142     143.8503      0.00000
   1143     144.0651      0.00000
   1144     144.3799      0.00000
   1145     144.7258      0.00000
   1146     144.7484      0.00000
   1147     145.0066      0.00000
   1148     145.5210      0.00000
   1149     145.6363      0.00000
   1150     145.7503      0.00000
   1151     146.2352      0.00000
   1152     146.7131      0.00000


--------------------------------------------------------------------------------------------------------


 soft charge-density along one line, spin component           1
         0         1         2         3         4         5         6         7         8         9
 total charge-density along one line
 
 pseudopotential strength for first ion, spin component:           1
 14.418 -16.702  -0.027  -0.027  -0.027   0.086   0.086   0.086
-16.702  52.819   0.009   0.009   0.009  -0.023  -0.023  -0.023
 -0.027   0.009   3.360   0.001   0.001  -9.837  -0.002  -0.002
 -0.027   0.009   0.001   3.360   0.001  -0.002  -9.837  -0.002
 -0.027   0.009   0.001   0.001   3.360  -0.002  -0.002  -9.837
  0.086  -0.023  -9.837  -0.002  -0.002  31.364   0.006   0.006
  0.086  -0.023  -0.002  -9.837  -0.002   0.006  31.364   0.006
  0.086  -0.023  -0.002  -0.002  -9.837   0.006   0.006  31.364
  0.001   0.000  -0.009  -0.004  -0.009   0.017   0.007   0.017
  0.001   0.000  -0.009  -0.009  -0.004   0.017   0.017   0.007
  0.000   0.000   0.006  -0.012   0.006  -0.011   0.023  -0.011
  0.001   0.000  -0.004  -0.009  -0.009   0.007   0.017   0.017
  0.000   0.000   0.010  -0.000  -0.010  -0.020   0.000   0.020
 -0.007   0.004   0.046   0.017   0.046  -0.125  -0.044  -0.125
 -0.007   0.004   0.046   0.046   0.017  -0.125  -0.125  -0.044
 -0.000   0.000  -0.030   0.061  -0.030   0.081  -0.162   0.081
 -0.007   0.004   0.017   0.046   0.046  -0.044  -0.125  -0.125
 -0.000   0.000  -0.053   0.000   0.053   0.141  -0.000  -0.141
 total augmentation occupancy for first ion, spin component:           1
  1.666   0.041   0.224   0.224   0.224   0.003   0.003   0.003  -0.025  -0.025  -0.000  -0.025  -0.000  -0.000  -0.000   0.000
  0.041   0.001  -0.005  -0.005  -0.005  -0.000  -0.000  -0.000  -0.001  -0.001   0.000  -0.001   0.000  -0.000  -0.000   0.000
  0.224  -0.005   1.187  -0.031  -0.031   0.047  -0.004  -0.004  -0.063  -0.063   0.007   0.140   0.012  -0.000  -0.000   0.000
  0.224  -0.005  -0.031   1.187  -0.031  -0.004   0.047  -0.004   0.140  -0.063  -0.014  -0.063  -0.000   0.000  -0.000  -0.000
  0.224  -0.005  -0.031  -0.031   1.187  -0.004  -0.004   0.047  -0.063   0.140   0.007  -0.063  -0.012  -0.000   0.000   0.000
  0.003  -0.000   0.047  -0.004  -0.004   0.002  -0.000  -0.000  -0.003  -0.003   0.000   0.006   0.001  -0.000  -0.000   0.000
  0.003  -0.000  -0.004   0.047  -0.004  -0.000   0.002  -0.000   0.006  -0.003  -0.001  -0.003  -0.000   0.000  -0.000  -0.000
  0.003  -0.000  -0.004  -0.004   0.047  -0.000  -0.000   0.002  -0.003   0.006   0.000  -0.003  -0.001  -0.000   0.000   0.000
 -0.025  -0.001  -0.063   0.140  -0.063  -0.003   0.006  -0.003   0.025  -0.011  -0.002  -0.011  -0.000   0.000  -0.000   0.000
 -0.025  -0.001  -0.063  -0.063   0.140  -0.003  -0.003   0.006  -0.011   0.025   0.001  -0.011  -0.002  -0.000   0.000  -0.000
 -0.000   0.000   0.007  -0.014   0.007   0.000  -0.001   0.000  -0.002   0.001   0.002   0.001   0.000   0.000  -0.000   0.000
 -0.025  -0.001   0.140  -0.063  -0.063   0.006  -0.003  -0.003  -0.011  -0.011   0.001   0.025   0.002  -0.000  -0.000  -0.000
 -0.000   0.000   0.012  -0.000  -0.012   0.001  -0.000  -0.001  -0.000  -0.002   0.000   0.002   0.002  -0.000   0.000  -0.000
 -0.000  -0.000  -0.000   0.000  -0.000  -0.000   0.000  -0.000   0.000  -0.000   0.000  -0.000  -0.000   0.000  -0.000   0.000
 -0.000  -0.000  -0.000  -0.000   0.000  -0.000  -0.000   0.000  -0.000   0.000  -0.000  -0.000   0.000  -0.000   0.000  -0.000
  0.000   0.000   0.000  -0.000   0.000   0.000  -0.000   0.000   0.000  -0.000   0.000  -0.000  -0.000   0.000  -0.000   0.000
 -0.000  -0.000   0.000  -0.000  -0.000   0.000  -0.000  -0.000  -0.000  -0.000  -0.000   0.000  -0.000  -0.000  -0.000  -0.000
  0.000   0.000   0.000  -0.000  -0.000   0.000  -0.000  -0.000  -0.000   0.000  -0.000  -0.000   0.000  -0.000   0.000  -0.000


------------------------ aborting loop because EDIFF is reached ----------------------------------------


    CHARGE:  cpu time      0.0656: real time      0.0658
    FORLOC:  cpu time      0.0077: real time      0.0077
    FORHF :  cpu time      0.2901: real time      0.2912
    FORNL :  cpu time      0.0609: real time      0.0611
    FORCOR:  cpu time      0.1871: real time      0.1879
    FORHAR:  cpu time      0.0599: real time      0.0604
    MIXING:  cpu time      0.0004: real time      0.0004
    OFIELD:  cpu time      0.0001: real time      0.0002

 VOLUME and BASIS-vectors are now :
 -----------------------------------------------------------------------------
  energy-cutoff  :      400.00
  volume of cell :      327.28
      direct lattice vectors                 reciprocal lattice vectors
     5.469713400  5.469713400  0.000000000     0.091412468  0.091412468 -0.091412468
     0.000000000  5.469713400  5.469713400    -0.091412468  0.091412468  0.091412468
     5.469713400  0.000000000  5.469713400     0.091412468 -0.091412468  0.091412468

  length of vectors
     7.735342873  7.735342873  7.735342873     0.158331039  0.158331039  0.158331039


 FORCES acting on ions
    electron-ion (+dipol)            ewald-force                    non-local-force                 convergence-correction
 -----------------------------------------------------------------------------------------------
   -.131E+02 -.131E+02 -.131E+02   0.189E+02 0.189E+02 0.189E+02   -.597E+01 -.597E+01 -.597E+01   0.210E-04 0.293E-04 0.219E-04
   0.209E+02 0.209E+02 -.210E+02   -.189E+02 -.189E+02 0.189E+02   -.443E+00 -.442E+00 0.134E+01   0.139E-03 0.154E-03 0.130E-03
   -.210E+02 0.209E+02 0.209E+02   0.189E+02 -.189E+02 -.189E+02   0.134E+01 -.442E+00 -.443E+00   0.132E-03 0.152E-03 0.141E-03
   -.185E+01 0.923E+00 -.185E+01   0.122E+01 -.122E+01 0.122E+01   0.411E+00 0.487E+00 0.411E+00   -.195E-03 -.176E-03 -.195E-03
   0.209E+02 -.210E+02 0.209E+02   -.189E+02 0.189E+02 -.189E+02   -.444E+00 0.134E+01 -.444E+00   0.143E-03 0.130E-03 0.149E-03
   0.923E+00 -.185E+01 -.185E+01   -.122E+01 0.122E+01 0.122E+01   0.487E+00 0.411E+00 0.411E+00   -.174E-03 -.193E-03 -.183E-03
   -.185E+01 -.185E+01 0.923E+00   0.122E+01 0.122E+01 -.122E+01   0.411E+00 0.411E+00 0.487E+00   -.185E-03 -.196E-03 -.176E-03
   0.174E+01 0.174E+01 0.174E+01   -.122E+01 -.122E+01 -.122E+01   -.295E+00 -.296E+00 -.295E+00   0.166E-03 0.154E-03 0.162E-03
   0.101E+00 0.101E+00 0.203E+01   0.199E-11 0.201E-11 -.138E+01   -.627E+00 -.627E+00 0.442E+00   -.177E-03 -.165E-03 -.216E-03
   0.203E+01 0.101E+00 0.101E+00   -.138E+01 0.203E-11 0.202E-11   0.442E+00 -.627E+00 -.627E+00   -.213E-03 -.167E-03 -.175E-03
   -.702E+00 -.329E+01 -.702E+00   -.104E-11 0.138E+01 -.106E-11   0.218E+00 0.736E+00 0.218E+00   0.195E-03 0.225E-03 0.197E-03
   0.101E+00 0.203E+01 0.101E+00   0.203E-11 -.138E+01 0.201E-11   -.627E+00 0.442E+00 -.627E+00   -.169E-03 -.216E-03 -.164E-03
   -.329E+01 -.702E+00 -.702E+00   0.138E+01 -.105E-11 -.103E-11   0.736E+00 0.218E+00 0.218E+00   0.230E-03 0.198E-03 0.204E-03
   -.702E+00 -.702E+00 -.329E+01   -.105E-11 -.103E-11 0.138E+01   0.218E+00 0.218E+00 0.736E+00   0.202E-03 0.197E-03 0.227E-03
   0.410E+00 0.409E+00 0.410E+00   0.439E-12 0.470E-12 0.439E-12   -.379E-01 -.379E-01 -.379E-01   -.145E-03 -.157E-03 -.149E-03
 -----------------------------------------------------------------------------------------------
   0.473E+01 0.472E+01 0.473E+01   0.104E-13 0.561E-14 0.102E-13   -.418E+01 -.418E+01 -.418E+01   -.293E-04 -.307E-04 -.266E-04
 
 
 POSITION                                       TOTAL-FORCE (eV/Angst)
 -----------------------------------------------------------------------------------
      0.01500      0.01500      0.01500        -0.649463     -0.649426     -0.649457
      2.71985      2.71985      0.01500         1.273427      1.273144     -0.362448
      0.01500      2.71985      2.71985        -0.362466      1.273145      1.273394
      2.73486      5.46971      2.73486        -0.164467      0.248498     -0.164472
      2.71985      0.01500      2.71985         1.273424     -0.362322      1.273386
      5.46971      2.73486      2.73486         0.248458     -0.164503     -0.164460
      2.73486      2.73486      5.46971        -0.164457     -0.164505      0.248463
      5.46971      5.46971      5.46971         0.178083      0.178107      0.178087
      4.10229      4.10229      1.36973        -0.595079     -0.594956      1.098444
      1.36973      4.10229      4.10229         1.098446     -0.594954     -0.595064
      4.10229      6.83484      4.10229        -0.462056     -0.989730     -0.462041
      4.10229      1.36973      4.10229        -0.595076      1.098430     -0.595061
      6.83484      4.10229      4.10229        -0.989748     -0.461928     -0.462043
      4.10229      4.10229      6.83484        -0.462057     -0.461929     -0.989747
      6.83714      6.83714      6.83714         0.373033      0.372929      0.373020
 -----------------------------------------------------------------------------------
    total drift:                               -0.000417     -0.000438     -0.000436


--------------------------------------------------------------------------------------------------------



  FREE ENERGIE OF THE ION-ELECTRON SYSTEM (eV)
  ---------------------------------------------------
  free  energy   TOTEN  =      -131.32641282 eV

  energy  without entropy=     -131.32641282  energy(sigma->0) =     -131.32641282
 


--------------------------------------------------------------------------------------------------------


    POTLOK:  cpu time      0.2315: real time      0.2322


--------------------------------------------------------------------------------------------------------


 writing wavefunctions
     LOOP+:  cpu time     40.0675: real time     40.1988
    4ORBIT:  cpu time      0.0000: real time      0.0000

 total amount of memory used by VASP MPI-rank0   180142. kBytes
=======================================================================

   base      :      30000. kBytes
   nonl-proj :       1179. kBytes
   fftplans  :        558. kBytes
   grid      :       2897. kBytes
   one-center:        116. kBytes
   HF        :         64. kBytes
   nonlr-proj:       7415. kBytes
   wavefun   :        156. kBytes
   fock_wrk  :     137757. kBytes
 
  
  
 General timing and accounting informations for this job:
 ========================================================
  
                  Total CPU time used (sec):       49.930
                            User time (sec):       29.165
                          System time (sec):       20.766
                         Elapsed time (sec):       50.355
  
                   Maximum memory used (kb):      447512.
                   Average memory used (kb):          N/A
  
                          Minor page faults:       162275
                          Major page faults:            0
                 Voluntary context switches:         1534
