 vasp.6.2.0 18Jan21 (build Nov 12 2021 22:59:13) gamma-only                     
  
 executed on             LinuxIFC date 2022.01.21  03:24:47
 running on   48 total cores
 distrk:  each k-point on   48 cores,    1 groups
 distr:  one band on NCORE=   1 cores,   48 groups


--------------------------------------------------------------------------------------------------------


 INCAR:
   ENCUT = 400
   SIGMA = 0.0001
   EDIFF = 1E-6
   LHFCALC = .TRUE.
   AEXX = 1.0
   ISYM = -1
   ALGO = sub
   NELM = 1
   NBANDS = 544
   NBANDSHIGH = 544

 POTCAR:    PAW Si_GW 04May2012                   
 -----------------------------------------------------------------------------
|                                                                             |
|           W    W    AA    RRRRR   N    N  II  N    N   GGGG   !!!           |
|           W    W   A  A   R    R  NN   N  II  NN   N  G    G  !!!           |
|           W    W  A    A  R    R  N N  N  II  N N  N  G       !!!           |
|           W WW W  AAAAAA  RRRRR   N  N N  II  N  N N  G  GGG   !            |
|           WW  WW  A    A  R   R   N   NN  II  N   NN  G    G                |
|           W    W  A    A  R    R  N    N  II  N    N   GGGG   !!!           |
|                                                                             |
|     For optimal performance we recommend to set                             |
|       NCORE = 2 up to number-of-cores-per-socket                            |
|     NCORE specifies how many cores store one orbital (NPAR=cpu/NCORE).      |
|     This setting can greatly improve the performance of VASP for DFT.       |
|     The default, NCORE=1 might be grossly inefficient on modern             |
|     multi-core architectures or massively parallel machines. Do your        |
|     own testing! More info at https://www.vasp.at/wiki/index.php/NCORE      |
|     Unfortunately you need to use the default for GW and RPA                |
|     calculations (for HF NCORE is supported but not extensively tested      |
|     yet).                                                                   |
|                                                                             |
 -----------------------------------------------------------------------------

 POTCAR:    PAW Si_GW 04May2012                   
   VRHFIN =Si: s2p2                                                                                 
   LEXCH  = PE                                                                                      
   EATOM  =   103.0669 eV,    7.5752 Ry                                                             
                                                                                                    
   TITEL  = PAW Si_GW 04May2012                                                                     
   LULTRA =        F    use ultrasoft PP ?                                                          
   IUNSCR =        1    unscreen: 0-lin 1-nonlin 2-no                                               
   RPACOR =    1.500    partial core radius                                                         
   POMASS =   28.085; ZVAL   =    4.000    mass and valenz                                          
   RCORE  =    1.900    outmost cutoff radius                                                       
   RWIGS  =    2.480; RWIGS  =    1.312    wigner-seitz radius (au A)                               
   ENMAX  =  245.345; ENMIN  =  184.009 eV                                                          
   ICORE  =        3    local potential                                                             
   LCOR   =        T    correct aug charges                                                         
   LPAW   =        T    paw PP                                                                      
   EAUG   =  412.952                                                                                
   DEXC   =    0.000                                                                                
   RMAX   =    1.950    core radius for proj-oper                                                   
   RAUG   =    1.300    factor for augmentation sphere                                              
   RDEP   =    1.993    radius for radial grids                                                     
   RDEPT  =    2.000    core radius for aug-charge                                                  
                                                                                                    
   Atomic configuration                                                                             
    7 entries                                                                                       
     n  l   j            E        occ.                                                              
     1  0  0.50     -1785.8828   2.0000                                                             
     2  0  0.50      -139.4969   2.0000                                                             
     2  1  1.50       -95.5546   6.0000                                                             
     3  0  0.50       -10.8127   2.0000                                                             
     3  1  0.50        -4.0811   2.0000                                                             
     3  2  1.50        -4.0817   0.0000                                                             
     4  3  2.50        -4.0817   0.0000                                                             
   Description                                                                                      
     l       E           TYP  RCUT    TYP  RCUT                                                     
     0    -10.8127223     23  1.900                                                                 
     0     95.2407820     23  1.900                                                                 
     1     -4.0811372     23  1.900                                                                 
     1     54.4233040     23  1.900                                                                 
     2     -8.1634956     23  1.900                                                                 
     2     81.6349560     23  1.900                                                                 
     3     27.2116520     23  1.900                                                                 
  local pseudopotential read in
  partial core-charges read in
  partial kinetic energy density read in
  kinetic energy density of atom read in
  atomic valenz-charges read in
  non local Contribution for L=           0  read in
    real space projection operators read in
  non local Contribution for L=           0  read in
    real space projection operators read in
  non local Contribution for L=           1  read in
    real space projection operators read in
  non local Contribution for L=           1  read in
    real space projection operators read in
  non local Contribution for L=           2  read in
    real space projection operators read in
  non local Contribution for L=           2  read in
    real space projection operators read in
    PAW grid and wavefunctions read in
 
   number of l-projection  operators is LMAX  =           6
   number of lm-projection operators is LMMAX =          18
 
 -----------------------------------------------------------------------------
|                                                                             |
|               ----> ADVICE to this user running VASP <----                  |
|                                                                             |
|     You have a (more or less) 'large supercell' and for larger cells it     |
|     might be more efficient to use real-space projection operators.         |
|     Therefore, try LREAL= Auto in the INCAR file.                           |
|     Mind: For very accurate calculation, you might also keep the            |
|     reciprocal projection scheme (i.e. LREAL=.FALSE.).                      |
|                                                                             |
 -----------------------------------------------------------------------------

  PAW Si_GW 04May2012                   :
 energy of atom  1       EATOM= -103.0669
 kinetic energy error for atom=    0.0012 (will be added to EATOM!!)
 
 
 POSCAR: cd:
  positions in direct lattice
  velocities in cartesian coordinates
 exchange correlation table for  LEXCH =        8
   RHO(1)=    0.500       N(1)  =     2000
   RHO(2)=  100.500       N(2)  =     4000
 


--------------------------------------------------------------------------------------------------------


 ion  position               nearest neighbor table
   1  0.312  0.312  0.062-   3 2.40  12 2.40   5 2.40  10 2.40  11 2.40   4 2.40
   2  0.015  0.015  0.954-  10 2.35  11 2.35  12 2.35  14 2.38
   3  0.510  0.978  0.003-  15 2.34  13 2.35   1 2.40  11 2.49  10 2.49
   4  0.978  0.510  0.003-  16 2.34  13 2.35   1 2.40  12 2.49  10 2.49
   5  0.510  0.510  0.003-  17 2.34  13 2.35   1 2.40  11 2.49  12 2.49
   6  0.998  0.998  0.493-  10 2.34  15 2.34  16 2.34  14 2.35
   7  0.511  0.998  0.493-  11 2.34  15 2.34  17 2.34  14 2.35
   8  0.998  0.511  0.493-  12 2.34  16 2.34  17 2.34  14 2.35
   9  0.484  0.484  0.547-  17 2.35  16 2.35  15 2.35  13 2.38
  10  0.115  0.115  0.122-   6 2.34   2 2.35   1 2.40   4 2.49   3 2.49
  11  0.647  0.115  0.122-   7 2.34   2 2.35   1 2.40   3 2.49   5 2.49
  12  0.115  0.647  0.122-   8 2.34   2 2.35   1 2.40   4 2.49   5 2.49
  13  0.610  0.610  0.171-   5 2.35   4 2.35   3 2.35   9 2.38
  14  0.141  0.141  0.578-   6 2.35   7 2.35   8 2.35   2 2.38
  15  0.627  0.114  0.632-   3 2.34   7 2.34   6 2.34   9 2.35
  16  0.114  0.627  0.632-   4 2.34   8 2.34   6 2.34   9 2.35
  17  0.627  0.627  0.632-   5 2.34   7 2.34   8 2.34   9 2.35
 

IMPORTANT INFORMATION: All symmetrisations will be switched off!
NOSYMM: (Re-)initialisation of all symmetry stuff for point group C_1.


----------------------------------------------------------------------------------------

                                     Primitive cell                                     

  volume of cell :     327.2832

  direct lattice vectors                    reciprocal lattice vectors
     5.469713400  5.469713400  0.000000000     0.091412468  0.091412468 -0.091412468
     0.000000000  5.469713400  5.469713400    -0.091412468  0.091412468  0.091412468
     5.469713400  0.000000000  5.469713400     0.091412468 -0.091412468  0.091412468

  length of vectors
     7.735342873  7.735342873  7.735342873     0.158331039  0.158331039  0.158331039

  position of ions in fractional coordinates (direct lattice)
     0.312500000  0.312500000  0.062500000
     0.015359614  0.015359614  0.953921159
     0.509587875  0.978014595  0.002809655
     0.978014595  0.509587875  0.002809655
     0.509587875  0.509587875  0.002809655
     0.997927239  0.997927239  0.493117661
     0.511027862  0.997927239  0.493117661
     0.997927239  0.511027862  0.493117661
     0.484244395  0.484244395  0.547266815
     0.115412125  0.115412125  0.122190345
     0.646985405  0.115412125  0.122190345
     0.115412125  0.646985405  0.122190345
     0.609640386  0.609640386  0.171078841
     0.140755605  0.140755605  0.577733185
     0.627072761  0.113972138  0.631882339
     0.113972138  0.627072761  0.631882339
     0.627072761  0.627072761  0.631882339

  ion indices of the primitive-cell ions
   primitive index   ion index
                 1           1
                 2           2
                 3           3
                 4           4
                 5           5
                 6           6
                 7           7
                 8           8
                 9           9
                10          10
                11          11
                12          12
                13          13
                14          14
                15          15
                16          16
                17          17

----------------------------------------------------------------------------------------

 
 
 KPOINTS: Automatic mesh                          

Automatic generation of k-mesh.
 Grid dimensions read from file:
 generate k-points for:    1    1    1

 Generating k-lattice:

  Cartesian coordinates                     Fractional coordinates (reciprocal lattice)
     0.091412468  0.091412468 -0.091412468     1.000000000  0.000000000  0.000000000
    -0.091412468  0.091412468  0.091412468     0.000000000  1.000000000 -0.000000000
     0.091412468 -0.091412468  0.091412468    -0.000000000 -0.000000000  1.000000000

  Length of vectors
     0.158331039  0.158331039  0.158331039

  Shift w.r.t. Gamma in fractional coordinates (k-lattice)
     0.000000000  0.000000000  0.000000000

 
 Subroutine IBZKPT returns following result:
 ===========================================
 
 Found      1 irreducible k-points:
 
 Following reciprocal coordinates:
            Coordinates               Weight
  0.000000  0.000000  0.000000      1.000000
 
 Following cartesian coordinates:
            Coordinates               Weight
  0.000000  0.000000  0.000000      1.000000
 
 WARNING: full set of k-points will be restricted to regular points only.

 
 Subroutine IBZKPT_HF returns following result:
 ==============================================
 
 Found      1 k-points in 1st BZ
 the following      1 k-points will be used (e.g. in the exchange kernel)
 Following reciprocal coordinates:   # in IRBZ
  0.000000  0.000000  0.000000    1.00000000   1 t-inv F
 -----------------------------------------------------------------------------
|                                                                             |
|           W    W    AA    RRRRR   N    N  II  N    N   GGGG   !!!           |
|           W    W   A  A   R    R  NN   N  II  NN   N  G    G  !!!           |
|           W    W  A    A  R    R  N N  N  II  N N  N  G       !!!           |
|           W WW W  AAAAAA  RRRRR   N  N N  II  N  N N  G  GGG   !            |
|           WW  WW  A    A  R   R   N   NN  II  N   NN  G    G                |
|           W    W  A    A  R    R  N    N  II  N    N   GGGG   !!!           |
|                                                                             |
|     The number of bands has been changed from the values supplied in        |
|     the INCAR file. This is a result of running the parallel version.       |
|     The orbitals not found in the WAVECAR file will be initialized with     |
|     random numbers, which is usually adequate. For correlated               |
|     calculations, however, you should redo the groundstate calculation.     |
|     I found NBANDS = 544. Now, NBANDS = 576.                                |
|                                                                             |
 -----------------------------------------------------------------------------



--------------------------------------------------------------------------------------------------------




 Dimension of arrays:
   k-points           NKPTS =      1   k-points in BZ     NKDIM =      1   number of bands    NBANDS=    576
   number of dos      NEDOS =    301   number of ions     NIONS =     17
   non local maximal  LDIM  =      6   non local SUM 2l+1 LMDIM =     18
   total plane-waves  NPLWV =  64000
   max r-space proj   IRMAX =      1   max aug-charges    IRDMAX=   9797
   dimension x,y,z NGX =    40 NGY =   40 NGZ =   40
   dimension x,y,z NGXF=    80 NGYF=   80 NGZF=   80
   support grid    NGXF=    80 NGYF=   80 NGZF=   80
   ions per type =              17
   lowest and highest band optimized NBANDSLOW=      -1 NBANDSHIGH=     544
   NGX,Y,Z   is equivalent  to a cutoff of   8.60,  8.60,  8.60 a.u.
   NGXF,Y,Z  is equivalent  to a cutoff of  17.19, 17.19, 17.19 a.u.

 SYSTEM =  unknown system                          
 POSCAR =  cd:                                     

 Startparameter for this run:
   NWRITE =      2    write-flag & timer
   PREC   = normal    normal or accurate (medium, high low for compatibility)
   ISTART =      1    job   : 0-new  1-cont  2-samecut
   ICHARG =      0    charge: 1-file 2-atom 10-const
   ISPIN  =      1    spin polarized calculation?
   LNONCOLLINEAR =      F non collinear calculations
   LSORBIT =      F    spin-orbit coupling
   INIWAV =      1    electr: 0-lowe 1-rand  2-diag
   LASPH  =      F    aspherical Exc in radial PAW
   METAGGA=      F    non-selfconsistent MetaGGA calc.

 Electronic Relaxation 1
   ENCUT  =  400.0 eV  29.40 Ry    5.42 a.u.  12.61 12.61 12.61*2*pi/ulx,y,z
   ENINI  =  400.0     initial cutoff
   ENAUG  =  413.0 eV  augmentation charge cutoff
   NELM   =      1;   NELMIN=  2; NELMDL=  0     # of ELM steps 
   EDIFF  = 0.1E-05   stopping-criterion for ELM
   LREAL  =      F    real-space projection
   NLSPLINE    = F    spline interpolate recip. space projectors
   LCOMPAT=      F    compatible to vasp.4.4
   GGA_COMPAT  = T    GGA compatible to vasp.4.4-vasp.4.6
   LMAXPAW     = -100 max onsite density
   LMAXMIX     =    2 max onsite mixed and CHGCAR
   VOSKOWN=      0    Vosko Wilk Nusair interpolation
   ROPT   =    0.00000
 Ionic relaxation
   EDIFFG = 0.1E-04   stopping-criterion for IOM
   NSW    =      0    number of steps for IOM
   NBLOCK =      1;   KBLOCK =      1    inner block; outer block 
   IBRION =     -1    ionic relax: 0-MD 1-quasi-New 2-CG
   NFREE  =      0    steps in history (QN), initial steepest desc. (CG)
   ISIF   =      0    stress and relaxation
   IWAVPR =     10    prediction:  0-non 1-charg 2-wave 3-comb
   ISYM   =     -1    0-nonsym 1-usesym 2-fastsym
   LCORR  =      T    Harris-Foulkes like correction to forces

   POTIM  = 0.5000    time-step for ionic-motion
   TEIN   =    0.0    initial temperature
   TEBEG  =    0.0;   TEEND  =   0.0 temperature during run
   SMASS  =  -3.00    Nose mass-parameter (am)
   estimated Nose-frequenzy (Omega)   =  0.10E-29 period in steps = 0.13E+47 mass=  -0.137E-26a.u.
   SCALEE = 1.0000    scale energy and forces
   NPACO  =    256;   APACO  = 16.0  distance and # of slots for P.C.
   PSTRESS=    0.0 pullay stress

  Mass of Ions in am
   POMASS =  28.09
  Ionic Valenz
   ZVAL   =   4.00
  Atomic Wigner-Seitz radii
   RWIGS  =  -1.00
  virtual crystal weights 
   VCA    =   1.00
   NELECT =      68.0000    total number of electrons
   NUPDOWN=      -1.0000    fix difference up-down

 DOS related values:
   EMIN   =  10.00;   EMAX   =-10.00  energy-range for DOS
   EFERMI =   0.00
   ISMEAR =     1;   SIGMA  =   0.00  broadening in eV -4-tet -1-fermi 0-gaus

 Electronic relaxation 2 (details)
   IALGO  =      4    algorithm
   LDIAG  =      T    sub-space diagonalisation (order eigenvalues)
   LSUBROT=      F    optimize rotation matrix (better conditioning)
   TURBO    =      0    0=normal 1=particle mesh
   IRESTART =      0    0=no restart 2=restart with 2 vectors
   NREBOOT  =      0    no. of reboots
   NMIN     =      0    reboot dimension
   EREF     =   0.00    reference energy to select bands
   IMIX   =      1    mixing-type and parameters
     AMIX     =   0.40;   BMIX     =  1.00
     AMIX_MAG =   1.60;   BMIX_MAG =  1.00
     AMIN     =   0.10
     WC   =   100.;   INIMIX=   1;  MIXPRE=   1;  MAXMIX= -45

 Intra band minimization:
   WEIMIN = 0.0000     energy-eigenvalue tresh-hold
   EBREAK =  0.43E-09  absolut break condition
   DEPER  =   0.30     relativ break condition  

   TIME   =   0.40     timestep for ELM

  volume/ion in A,a.u.               =      19.25       129.92
  Fermi-wavevector in a.u.,A,eV,Ry     =   0.969624  1.832323 12.791792  0.940170
  Thomas-Fermi vector in A             =   2.099692
 
 Write flags
   LWAVE        =      T    write WAVECAR
   LDOWNSAMPLE  =      F    k-point downsampling of WAVECAR
   LCHARG       =      T    write CHGCAR
   LVTOT        =      F    write LOCPOT, total local potential
   LVHAR        =      F    write LOCPOT, Hartree potential only
   LELF         =      F    write electronic localiz. function (ELF)
   LORBIT       =      0    0 simple, 1 ext, 2 COOP (PROOUT), +10 PAW based schemes


 Dipole corrections
   LMONO  =      F    monopole corrections only (constant potential shift)
   LDIPOL =      F    correct potential (dipole corrections)
   IDIPOL =      0    1-x, 2-y, 3-z, 4-all directions 
   EPSILON=  1.0000000 bulk dielectric constant

 Exchange correlation treatment:
   GGA     =    --    GGA type
   LEXCH   =     8    internal setting for exchange type
   VOSKOWN=      0    Vosko Wilk Nusair interpolation
   EXXOEP  =     0    0=HF, 1=EXX-LHF (local Hartree Fock) 2=EXX OEP
   LHFCALC =     T    Hartree Fock is set to
   LSYMGRAD=     F    symmetrize gradient (conserves proper symmetry)
   PRECFOCK=normal    Normal, Fast or Accurate (Low or Medium for compatibility)
   LRHFCALC=     F    long range Hartree Fock
   LRSCOR  =     F    long range correlation only (use DFT for short range part)
   LTHOMAS =     F    Thomas Fermi screening in HF
   LMODELHF=     F    short range full HF, long range fraction AEXX
   LFOCKACE=     T    use Adeptively-Compressed-Exchange operator
   ENCUT4O =  -1.0   cutoff for four orbital integrals eV
   LMAXFOCK=     4    L truncation for augmentation on plane wave grid
   LMAXFOCKAE=  -1    L truncation for all-electron charge restoration on plane wave grid
   NMAXFOCKAE=   1    number of basis functions for all-electron charge restoration
   LFOCKAEDFT=     F  apply the AE augmentation even for DFT
   NKREDX  =     1    reduce k-point grid by
   NKREDY  =     1    reduce k-point grid by
   NKREDZ  =     1    reduce k-point grid by
   SHIFTRED=     F    shift reduced grid of Gamma
   HFKIDENT=     F    idential grid for each k-point
   ODDONLY =     F    use only odd q-grid points
   EVENONLY=     F    use only even q-grid points
   HFALPHA =   -1.0000 decay constant for conv. correction
   MCALPHA =    0.0000 extent of test-charge in conv. correction in multipole expansion
   AEXX    =    1.0000 exact exchange contribution
   HFSCREEN=    0.0000 screening length (either q_TF or 0.3 A-1)
   HFSCREENC=   0.0000 screening length for correlation (either q_TF or 0.3 A-1)
   HFRCUT  =    0.0000 spherical cutoff for potential kernel
   ALDAX   =    0.0000 LDA exchange part
   AGGAX   =    0.0000 GGA exchange part
   ALDAC   =    0.0000 LDA correlation
   AGGAC   =    0.0000 GGA correlation
   ENCUTFOCK=  -1.0 apply spherical cutoff to Coloumb kernel
   NBANDSGWLOW=     1    first orbital included in HF term
   NBLOCK_FOCK=    64    blocking factor in FOCK_ACC
 Linear response parameters
   LEPSILON=     F    determine dielectric tensor
   LRPA    =     F    only Hartree local field effects (RPA)
   LNABLA  =     F    use nabla operator in PAW spheres
   LVEL    =     F    velocity operator in full k-point grid
   LINTERFAST=   F  fast interpolation
   KINTER  =     0    interpolate to denser k-point grid
   CSHIFT  =0.1000    complex shift for real part using Kramers Kronig
   OMEGAMAX=  -1.0    maximum frequency
   DEG_THRESHOLD= 0.2000000E-02 threshold for treating states as degnerate
   RTIME   =   -0.100 relaxation time in fs
  (WPLASMAI=    0.000 imaginary part of plasma frequency in eV, 0.658/RTIME)
   DFIELD  = 0.0000000 0.0000000 0.0000000 field for delta impulse in time
 
 Orbital magnetization related:
   ORBITALMAG=     F  switch on orbital magnetization
   LCHIMAG   =     F  perturbation theory with respect to B field
   DQ        =  0.001000  dq finite difference perturbation B field
   LLRAUG    =     F  two centre corrections for induced B field



--------------------------------------------------------------------------------------------------------


 Static calculation
 charge density and potential will be updated during run
 non-spin polarized calculation
 Subrot: only subspace diagonalization (rotation)
    band-by band algorithm
 perform sub-space diagonalisation
    before iterative eigenvector-optimisation
 Kerker-like  mixing scheme
 using additional bands          542
 reciprocal scheme for non local part
 use partial core corrections
 calculate Harris-corrections to forces 
   (improved forces if not selfconsistent)
 use gradient corrections 
 use of overlap-Matrix (Vanderbilt PP)
 Methfessel and Paxton  Order N= 1 SIGMA  =   0.00


--------------------------------------------------------------------------------------------------------


  energy-cutoff  :      400.00
  volume of cell :      327.28
      direct lattice vectors                 reciprocal lattice vectors
     5.469713400  5.469713400  0.000000000     0.091412468  0.091412468 -0.091412468
     0.000000000  5.469713400  5.469713400    -0.091412468  0.091412468  0.091412468
     5.469713400  0.000000000  5.469713400     0.091412468 -0.091412468  0.091412468

  length of vectors
     7.735342873  7.735342873  7.735342873     0.158331039  0.158331039  0.158331039


 
 old parameters found on file WAVECAR:
  energy-cutoff  :      400.00
  volume of cell :      327.28
      direct lattice vectors                 reciprocal lattice vectors
     5.469713400  5.469713400  0.000000000     0.091412468  0.091412468 -0.091412468
     0.000000000  5.469713400  5.469713400    -0.091412468  0.091412468  0.091412468
     5.469713400  0.000000000  5.469713400     0.091412468 -0.091412468  0.091412468

  length of vectors

 
 k-points in units of 2pi/SCALE and weight: Automatic mesh                          
   0.00000000  0.00000000  0.00000000       1.000
 
 k-points in reciprocal lattice and weights: Automatic mesh                          
   0.00000000  0.00000000  0.00000000       1.000
 
 position of ions in fractional coordinates (direct lattice) 
   0.31250000  0.31250000  0.06250000
   0.01535961  0.01535961  0.95392116
   0.50958788  0.97801459  0.00280965
   0.97801459  0.50958788  0.00280965
   0.50958788  0.50958788  0.00280965
   0.99792724  0.99792724  0.49311766
   0.51102786  0.99792724  0.49311766
   0.99792724  0.51102786  0.49311766
   0.48424440  0.48424440  0.54726681
   0.11541212  0.11541212  0.12219035
   0.64698541  0.11541212  0.12219035
   0.11541212  0.64698541  0.12219035
   0.60964039  0.60964039  0.17107884
   0.14075560  0.14075560  0.57773319
   0.62707276  0.11397214  0.63188234
   0.11397214  0.62707276  0.63188234
   0.62707276  0.62707276  0.63188234
 
 position of ions in cartesian coordinates  (Angst):
   2.05114252  3.41857087  2.05114252
   5.30168803  0.16802537  5.30168803
   2.80266764  8.13675916  5.36482754
   5.36482754  8.13675916  2.80266764
   2.80266764  5.57459926  2.80266764
   8.15558827 10.91675198  8.15558827
   5.49238822  8.25355193  8.15558827
   8.15558827  8.25355193  5.49238822
   5.64207069  5.29735611  5.64207069
   1.29961741  1.26254249  1.29961741
   4.20717091  4.17009599  1.29961741
   1.29961741  4.17009599  4.20717091
   4.27031042  6.66911638  4.27031042
   3.92992776  1.53978564  3.92992776
   6.88612358  4.05330322  4.07961023
   4.07961023  4.05330322  6.88612358
   6.88612358  6.85981657  6.88612358
 


--------------------------------------------------------------------------------------------------------


 use serial FFT for orbitals x direction half grid
 k-point   1 :   0.0000 0.0000 0.0000  plane waves:    2981

 maximum and minimum number of plane-waves per node :      2981     2981

 maximum number of plane-waves:      2981
 maximum index in each direction: 
   IXMAX=   12   IYMAX=   12   IZMAX=   12
   IXMIN=    0   IYMIN=  -10   IZMIN=  -10


 serial   3D FFT for wavefunctions
 parallel 3D FFT for charge:
    minimum data exchange during FFTs selected (reduces bandwidth)

 
 Radii for the augmentation spheres in the non-local exchange
 for species   1 augmentation radius   1.405 (default was   1.124)
       energy cutoff for augmentation   1600.0
 Maximum index for augmentation-charges in exchange         2310
  SETUP_FOCK is finished

 total amount of memory used by VASP MPI-rank0    44473. kBytes
=======================================================================

   base      :      30000. kBytes
   nonl-proj :       1257. kBytes
   fftplans  :        698. kBytes
   grid      :       3210. kBytes
   one-center:        132. kBytes
   HF        :         64. kBytes
   nonlr-proj:       8500. kBytes
   wavefun   :        612. kBytes
 
     INWAV:  cpu time    0.0558: real time    0.0562
 charge density for first step will be calculated from the start-wavefunctions


--------------------------------------------------------------------------------------------------------


 Maximum index for augmentation-charges          499 (set IRDMAX)


--------------------------------------------------------------------------------------------------------


 initial charge from wavefunction
    FEWALD:  cpu time    0.0005: real time    0.0005


--------------------------------------- Iteration      1(   1)  ---------------------------------------


    POTLOK:  cpu time    0.0084: real time    0.0088
    SETDIJ:  cpu time    0.0055: real time    0.0057
    EDDIAG:  cpu time    8.5796: real time    8.6028
       DOS:  cpu time    0.0008: real time    0.0010
    --------------------------------------------
      LOOP:  cpu time    8.5943: real time    8.6182

 eigenvalue-minimisations  :     0
 total energy-change (2. order) :-0.1498798E+03  ( 0.0000000E+00)
 number of electron      67.9999996 magnetization 
 augmentation part       -3.6965621 magnetization 

 Free energy of the ion-electron system (eV)
  ---------------------------------------------------
  alpha Z        PSCENC =        53.80049087
  Ewald energy   TEWEN  =     -1958.01935177
  -Hartree energ DENC   =      -152.02841816
  -.14987980E+03
  -exchange      EXHF   =       513.19917014
  -V(xc)+E(xc)   XCENC  =         0.00000000
  PAW double counting   =      2290.80236775    -2294.81879781
  entropy T*S    EENTRO =         0.00000000
  eigenvalues    EBANDS =      -202.01387625
  atomic energy  EATOM  =      1599.19861851
  Solvation  Ediel_sol  =         0.00000000
  ---------------------------------------------------
  free energy    TOTEN  =      -149.87979673 eV

  energy without entropy =     -149.87979673  energy(sigma->0) =     -149.87979673
  exchange ACFDT corr.  =     -1034.78628288  see jH, gK, PRB 81, 115126


--------------------------------------------------------------------------------------------------------




 average (electrostatic) potential at core
  the test charge radii are     1.1243
  (the norm of the test charge is              1.0000)
       1 -49.6692       2 -49.6589       3 -50.0678       4 -50.0678       5 -50.0678
       6 -49.6004       7 -49.6004       8 -49.6004       9 -49.6044      10 -50.0678
      11 -50.0678      12 -50.0678      13 -49.6589      14 -49.6044      15 -49.6004
      16 -49.6004      17 -49.6004
 
 
 
 E-fermi :   3.1813     XC(G=0):   0.0000     alpha+bet :-12.0749

 Fermi energy:         3.1813335119

 k-point     1 :       0.0000    0.0000    0.0000
  band No.  band energies     occupation 
      1     -13.4784      2.00000
      2     -10.2845      2.00000
      3      -9.8847      2.00000
      4      -9.8847      2.00000
      5      -9.7201      2.00000
      6      -8.5038      2.00000
      7      -7.2858      2.00000
      8      -7.2715      2.00000
      9      -7.2715      2.00000
     10      -7.0681      2.00000
     11      -7.0681      2.00000
     12      -6.6023      2.00000
     13      -5.7862      2.00000
     14      -5.4650      2.00000
     15      -5.4650      2.00000
     16      -1.1522      2.00000
     17      -1.1206      2.00000
     18      -1.1206      2.00000
     19      -0.3688      2.00000
     20      -0.3688      2.00000
     21      -0.0916      2.00000
     22       0.9768      2.00000
     23       0.9768      2.00000
     24       1.4230      2.00000
     25       1.4230      2.00000
     26       1.4332      2.00000
     27       1.5067      2.00000
     28       1.5067      2.00000
     29       1.8145      2.00000
     30       1.8523      2.00000
     31       2.7224      2.00000
     32       2.7775      2.00000
     33       2.7775      2.00000
     34       3.0650      2.00000
     35      10.9416      0.00000
     36      10.9668      0.00000
     37      11.3056      0.00000
     38      11.3259      0.00000
     39      11.9806      0.00000
     40      12.1725      0.00000
     41      12.1797      0.00000
     42      12.1832      0.00000
     43      12.2495      0.00000
     44      12.2518      0.00000
     45      13.4378      0.00000
     46      13.6234      0.00000
     47      13.9498      0.00000
     48      13.9502      0.00000
     49      14.2313      0.00000
     50      14.2363      0.00000
     51      14.4740      0.00000
     52      14.4746      0.00000
     53      14.4924      0.00000
     54      14.5149      0.00000
     55      16.0430      0.00000
     56      16.8259      0.00000
     57      18.7012      0.00000
     58      18.7421      0.00000
     59      19.2653      0.00000
     60      19.3932      0.00000
     61      19.4736      0.00000
     62      21.2027      0.00000
     63      21.2072      0.00000
     64      21.3156      0.00000
     65      21.6287      0.00000
     66      21.6560      0.00000
     67      21.9002      0.00000
     68      21.9084      0.00000
     69      21.9965      0.00000
     70      22.6421      0.00000
     71      22.6979      0.00000
     72      22.8249      0.00000
     73      22.8467      0.00000
     74      22.9492      0.00000
     75      22.9634      0.00000
     76      22.9984      0.00000
     77      23.0102      0.00000
     78      23.0283      0.00000
     79      23.1433      0.00000
     80      23.2322      0.00000
     81      23.2761      0.00000
     82      23.2912      0.00000
     83      23.3243      0.00000
     84      23.3265      0.00000
     85      23.3522      0.00000
     86      23.4294      0.00000
     87      23.4367      0.00000
     88      23.4449      0.00000
     89      23.7390      0.00000
     90      23.7580      0.00000
     91      23.8528      0.00000
     92      23.8623      0.00000
     93      23.8777      0.00000
     94      23.9142      0.00000
     95      23.9346      0.00000
     96      24.1310      0.00000
     97      24.4261      0.00000
     98      24.5889      0.00000
     99      24.5909      0.00000
    100      24.9682      0.00000
    101      24.9701      0.00000
    102      25.2537      0.00000
    103      25.2810      0.00000
    104      25.7310      0.00000
    105      25.7866      0.00000
    106      25.8100      0.00000
    107      25.9019      0.00000
    108      25.9835      0.00000
    109      26.0739      0.00000
    110      26.1791      0.00000
    111      26.2488      0.00000
    112      26.2709      0.00000
    113      27.0033      0.00000
    114      30.2595      0.00000
    115      30.6497      0.00000
    116      30.6709      0.00000
    117      31.0073      0.00000
    118      31.4493      0.00000
    119      31.5979      0.00000
    120      32.2535      0.00000
    121      32.4075      0.00000
    122      32.4821      0.00000
    123      32.5562      0.00000
    124      32.5930      0.00000
    125      32.6649      0.00000
    126      32.8414      0.00000
    127      33.0467      0.00000
    128      33.2905      0.00000
    129      33.3020      0.00000
    130      33.4489      0.00000
    131      33.4772      0.00000
    132      33.5625      0.00000
    133      33.6018      0.00000
    134      33.7447      0.00000
    135      33.7649      0.00000
    136      33.9036      0.00000
    137      34.1002      0.00000
    138      34.1879      0.00000
    139      34.2062      0.00000
    140      34.2734      0.00000
    141      34.4155      0.00000
    142      34.6999      0.00000
    143      34.7267      0.00000
    144      34.8127      0.00000
    145      35.3182      0.00000
    146      35.5426      0.00000
    147      35.5594      0.00000
    148      35.7069      0.00000
    149      35.8065      0.00000
    150      35.8260      0.00000
    151      35.9341      0.00000
    152      35.9789      0.00000
    153      36.6077      0.00000
    154      36.6431      0.00000
    155      36.8428      0.00000
    156      37.0278      0.00000
    157      37.1897      0.00000
    158      37.1982      0.00000
    159      37.3134      0.00000
    160      37.5151      0.00000
    161      37.5522      0.00000
    162      38.2041      0.00000
    163      38.4636      0.00000
    164      38.6215      0.00000
    165      38.6996      0.00000
    166      39.7000      0.00000
    167      39.7480      0.00000
    168      40.0839      0.00000
    169      40.1997      0.00000
    170      40.3387      0.00000
    171      40.4595      0.00000
    172      40.5775      0.00000
    173      40.7572      0.00000
    174      41.0315      0.00000
    175      41.0690      0.00000
    176      41.1311      0.00000
    177      41.4070      0.00000
    178      41.4274      0.00000
    179      41.5495      0.00000
    180      41.7839      0.00000
    181      41.8471      0.00000
    182      42.2545      0.00000
    183      42.2819      0.00000
    184      42.4151      0.00000
    185      42.4362      0.00000
    186      42.5072      0.00000
    187      42.5094      0.00000
    188      42.5604      0.00000
    189      42.5893      0.00000
    190      42.5978      0.00000
    191      42.6653      0.00000
    192      42.7484      0.00000
    193      42.7729      0.00000
    194      43.0317      0.00000
    195      43.0890      0.00000
    196      43.1488      0.00000
    197      43.2335      0.00000
    198      43.2523      0.00000
    199      43.9672      0.00000
    200      44.2651      0.00000
    201      44.3739      0.00000
    202      44.4600      0.00000
    203      44.6223      0.00000
    204      44.6584      0.00000
    205      44.7950      0.00000
    206      44.8247      0.00000
    207      44.9421      0.00000
    208      45.0158      0.00000
    209      45.1114      0.00000
    210      45.6484      0.00000
    211      46.3637      0.00000
    212      46.9680      0.00000
    213      47.3347      0.00000
    214      47.4333      0.00000
    215      48.0670      0.00000
    216      48.0729      0.00000
    217      48.2376      0.00000
    218      48.6381      0.00000
    219      49.1018      0.00000
    220      49.1213      0.00000
    221      49.2529      0.00000
    222      49.3198      0.00000
    223      49.4616      0.00000
    224      49.8218      0.00000
    225      49.9506      0.00000
    226      49.9530      0.00000
    227      50.0025      0.00000
    228      50.1316      0.00000
    229      50.2046      0.00000
    230      50.2280      0.00000
    231      50.5794      0.00000
    232      50.6066      0.00000
    233      50.6510      0.00000
    234      51.0000      0.00000
    235      51.0428      0.00000
    236      51.3187      0.00000
    237      51.5096      0.00000
    238      51.8299      0.00000
    239      51.9023      0.00000
    240      51.9086      0.00000
    241      51.9190      0.00000
    242      52.0434      0.00000
    243      52.4909      0.00000
    244      52.6697      0.00000
    245      52.7303      0.00000
    246      52.9698      0.00000
    247      53.2390      0.00000
    248      53.8140      0.00000
    249      53.8441      0.00000
    250      54.1103      0.00000
    251      54.2267      0.00000
    252      54.2819      0.00000
    253      54.3597      0.00000
    254      54.3702      0.00000
    255      54.5286      0.00000
    256      54.6538      0.00000
    257      54.7223      0.00000
    258      54.9472      0.00000
    259      54.9746      0.00000
    260      55.0058      0.00000
    261      55.0788      0.00000
    262      55.1609      0.00000
    263      55.9152      0.00000
    264      55.9509      0.00000
    265      56.3283      0.00000
    266      56.3608      0.00000
    267      56.3697      0.00000
    268      56.9760      0.00000
    269      57.0572      0.00000
    270      57.1134      0.00000
    271      57.1673      0.00000
    272      57.3232      0.00000
    273      57.5876      0.00000
    274      57.6757      0.00000
    275      57.8190      0.00000
    276      58.0322      0.00000
    277      58.4291      0.00000
    278      58.7566      0.00000
    279      58.8559      0.00000
    280      59.0841      0.00000
    281      59.6018      0.00000
    282      59.6767      0.00000
    283      59.6946      0.00000
    284      59.9508      0.00000
    285      59.9587      0.00000
    286      60.3175      0.00000
    287      60.5780      0.00000
    288      60.8728      0.00000
    289      61.0033      0.00000
    290      61.0492      0.00000
    291      61.0672      0.00000
    292      61.0764      0.00000
    293      61.1229      0.00000
    294      61.1583      0.00000
    295      61.3821      0.00000
    296      61.4924      0.00000
    297      61.5639      0.00000
    298      61.6144      0.00000
    299      61.7200      0.00000
    300      62.0064      0.00000
    301      62.0477      0.00000
    302      62.1563      0.00000
    303      62.2197      0.00000
    304      62.3856      0.00000
    305      62.4837      0.00000
    306      62.5201      0.00000
    307      62.5202      0.00000
    308      62.7675      0.00000
    309      62.7878      0.00000
    310      62.8570      0.00000
    311      63.1264      0.00000
    312      63.1844      0.00000
    313      63.2432      0.00000
    314      63.4183      0.00000
    315      63.6648      0.00000
    316      63.6740      0.00000
    317      64.0034      0.00000
    318      64.1202      0.00000
    319      64.3239      0.00000
    320      64.4744      0.00000
    321      64.4924      0.00000
    322      64.8767      0.00000
    323      64.8768      0.00000
    324      64.9865      0.00000
    325      65.1319      0.00000
    326      66.0087      0.00000
    327      66.0103      0.00000
    328      66.0873      0.00000
    329      66.3927      0.00000
    330      66.4441      0.00000
    331      66.7266      0.00000
    332      66.8782      0.00000
    333      66.8924      0.00000
    334      66.9941      0.00000
    335      67.2940      0.00000
    336      67.3353      0.00000
    337      67.4014      0.00000
    338      67.5694      0.00000
    339      67.6213      0.00000
    340      67.7572      0.00000
    341      67.8641      0.00000
    342      67.9667      0.00000
    343      68.0267      0.00000
    344      68.1463      0.00000
    345      68.4358      0.00000
    346      68.4895      0.00000
    347      68.6812      0.00000
    348      68.7092      0.00000
    349      68.8391      0.00000
    350      68.9370      0.00000
    351      69.1078      0.00000
    352      69.3198      0.00000
    353      69.3865      0.00000
    354      69.7847      0.00000
    355      69.8181      0.00000
    356      69.9458      0.00000
    357      70.0066      0.00000
    358      70.0866      0.00000
    359      70.4044      0.00000
    360      70.4569      0.00000
    361      70.4581      0.00000
    362      70.5749      0.00000
    363      70.8205      0.00000
    364      71.0189      0.00000
    365      71.1931      0.00000
    366      71.2727      0.00000
    367      71.4559      0.00000
    368      71.5173      0.00000
    369      71.6005      0.00000
    370      72.1415      0.00000
    371      72.3231      0.00000
    372      73.3943      0.00000
    373      73.4279      0.00000
    374      73.4602      0.00000
    375      74.2664      0.00000
    376      74.6564      0.00000
    377      74.8570      0.00000
    378      75.1309      0.00000
    379      75.2370      0.00000
    380      75.3014      0.00000
    381      75.4903      0.00000
    382      75.5067      0.00000
    383      75.7653      0.00000
    384      75.8628      0.00000
    385      76.0785      0.00000
    386      76.1020      0.00000
    387      76.2131      0.00000
    388      76.3302      0.00000
    389      76.7326      0.00000
    390      76.7814      0.00000
    391      76.8757      0.00000
    392      76.8848      0.00000
    393      77.4803      0.00000
    394      77.5000      0.00000
    395      77.9769      0.00000
    396      78.0670      0.00000
    397      78.0793      0.00000
    398      78.2792      0.00000
    399      78.5669      0.00000
    400      78.7476      0.00000
    401      78.7523      0.00000
    402      78.8914      0.00000
    403      78.9002      0.00000
    404      78.9301      0.00000
    405      79.1463      0.00000
    406      79.1905      0.00000
    407      79.2782      0.00000
    408      79.3871      0.00000
    409      79.5844      0.00000
    410      79.7043      0.00000
    411      79.8469      0.00000
    412      79.8929      0.00000
    413      80.2003      0.00000
    414      80.3741      0.00000
    415      80.4589      0.00000
    416      80.5473      0.00000
    417      80.6477      0.00000
    418      80.8308      0.00000
    419      80.9239      0.00000
    420      81.1316      0.00000
    421      81.2752      0.00000
    422      81.4362      0.00000
    423      81.6204      0.00000
    424      81.6709      0.00000
    425      81.8285      0.00000
    426      81.9590      0.00000
    427      82.1025      0.00000
    428      82.2467      0.00000
    429      82.2773      0.00000
    430      82.5745      0.00000
    431      82.6746      0.00000
    432      82.8878      0.00000
    433      83.2325      0.00000
    434      83.2886      0.00000
    435      83.3828      0.00000
    436      83.3877      0.00000
    437      83.5631      0.00000
    438      83.6853      0.00000
    439      83.7200      0.00000
    440      83.9457      0.00000
    441      84.0154      0.00000
    442      84.0398      0.00000
    443      84.4337      0.00000
    444      84.7800      0.00000
    445      84.9342      0.00000
    446      85.0717      0.00000
    447      85.1885      0.00000
    448      85.4163      0.00000
    449      85.6450      0.00000
    450      85.8372      0.00000
    451      86.3802      0.00000
    452      86.4238      0.00000
    453      86.5058      0.00000
    454      86.6330      0.00000
    455      86.6786      0.00000
    456      86.8234      0.00000
    457      86.9991      0.00000
    458      87.0074      0.00000
    459      87.1154      0.00000
    460      87.2086      0.00000
    461      87.3828      0.00000
    462      87.5250      0.00000
    463      87.6924      0.00000
    464      87.7195      0.00000
    465      88.5660      0.00000
    466      88.5946      0.00000
    467      88.6738      0.00000
    468      88.9154      0.00000
    469      89.0117      0.00000
    470      89.0633      0.00000
    471      89.2626      0.00000
    472      89.3963      0.00000
    473      89.8319      0.00000
    474      89.8382      0.00000
    475      90.1758      0.00000
    476      90.2967      0.00000
    477      90.3340      0.00000
    478      90.5391      0.00000
    479      90.6157      0.00000
    480      91.2251      0.00000
    481      91.3512      0.00000
    482      91.5950      0.00000
    483      91.7520      0.00000
    484      91.7945      0.00000
    485      92.1962      0.00000
    486      92.4351      0.00000
    487      93.0148      0.00000
    488      93.1293      0.00000
    489      93.5053      0.00000
    490      94.2099      0.00000
    491      94.5330      0.00000
    492      94.7135      0.00000
    493      94.8324      0.00000
    494      95.0216      0.00000
    495      95.4490      0.00000
    496      95.5972      0.00000
    497      95.6447      0.00000
    498      95.7082      0.00000
    499      96.0596      0.00000
    500      96.3568      0.00000
    501      96.4582      0.00000
    502      96.6597      0.00000
    503      96.9756      0.00000
    504      97.0790      0.00000
    505      97.1947      0.00000
    506      97.2152      0.00000
    507      97.3048      0.00000
    508      97.5191      0.00000
    509      97.5473      0.00000
    510      97.7516      0.00000
    511      97.8065      0.00000
    512      97.8523      0.00000
    513      97.9621      0.00000
    514      98.0177      0.00000
    515      98.1654      0.00000
    516      98.5909      0.00000
    517      98.6016      0.00000
    518      98.6247      0.00000
    519      98.6925      0.00000
    520      99.3301      0.00000
    521      99.4615      0.00000
    522      99.4671      0.00000
    523      99.5811      0.00000
    524      99.9682      0.00000
    525     100.0674      0.00000
    526     100.2463      0.00000
    527     100.2909      0.00000
    528     100.5361      0.00000
    529     100.6814      0.00000
    530     100.7493      0.00000
    531     101.1132      0.00000
    532     101.2889      0.00000
    533     101.2992      0.00000
    534     101.3402      0.00000
    535     101.7231      0.00000
    536     101.9601      0.00000
    537     102.0514      0.00000
    538     102.1068      0.00000
    539     102.2189      0.00000
    540     103.2991      0.00000
    541     103.4983      0.00000
    542     103.6847      0.00000
    543     105.3635      0.00000
    544     106.5194      0.00000
    545      87.2534      0.00000
    546      87.8027      0.00000
    547      87.9754      0.00000
    548      88.4316      0.00000
    549      88.6719      0.00000
    550      88.7749      0.00000
    551      89.0335      0.00000
    552      89.2675      0.00000
    553      89.3918      0.00000
    554      89.3977      0.00000
    555      89.4106      0.00000
    556      89.7167      0.00000
    557      90.2995      0.00000
    558      90.5004      0.00000
    559      90.7494      0.00000
    560      91.0306      0.00000
    561      91.0844      0.00000
    562      91.0923      0.00000
    563      91.1025      0.00000
    564      91.3134      0.00000
    565      91.6297      0.00000
    566      91.8722      0.00000
    567      92.0169      0.00000
    568      92.4955      0.00000
    569      92.9765      0.00000
    570      93.0061      0.00000
    571      93.0783      0.00000
    572      94.0854      0.00000
    573      94.1045      0.00000
    574      95.6874      0.00000
    575      95.8209      0.00000
    576      98.5567      0.00000


--------------------------------------------------------------------------------------------------------


 soft charge-density along one line, spin component           1
         0         1         2         3         4         5         6         7         8         9
 total charge-density along one line
 
 pseudopotential strength for first ion, spin component:           1
 14.325 -16.657   0.000   0.000  -0.000  -0.000  -0.000   0.000
-16.657  52.908  -0.000  -0.000   0.000   0.000   0.000  -0.000
  0.000  -0.000   3.348   0.006   0.006  -9.791  -0.015  -0.015
  0.000  -0.000   0.006   3.348  -0.006  -0.015  -9.791   0.015
 -0.000   0.000   0.006  -0.006   3.348  -0.015   0.015  -9.791
 -0.000   0.000  -9.791  -0.015  -0.015  31.200   0.040   0.040
 -0.000   0.000  -0.015  -9.791   0.015   0.040  31.200  -0.040
  0.000  -0.000  -0.015   0.015  -9.791   0.040  -0.040  31.200
  0.008   0.005  -0.000  -0.000   0.000   0.000   0.000  -0.000
  0.008   0.005   0.000   0.000  -0.000  -0.000  -0.000   0.000
  0.000   0.000  -0.000   0.000  -0.000   0.000  -0.000   0.000
 -0.008  -0.005  -0.000  -0.000   0.000   0.000   0.000  -0.000
 -0.000  -0.000  -0.000  -0.000  -0.000   0.000   0.000   0.000
 -0.036   0.014   0.000   0.000  -0.000  -0.000  -0.000   0.000
 -0.036   0.014  -0.000  -0.000   0.000   0.000   0.000  -0.000
 -0.000   0.000   0.000  -0.000   0.000  -0.000   0.000   0.000
  0.036  -0.014   0.000   0.000  -0.000  -0.000  -0.000   0.000
  0.000  -0.000   0.000   0.000   0.000  -0.000  -0.000  -0.000
 total augmentation occupancy for first ion, spin component:           1
  1.826   0.042  -0.000  -0.000   0.000   0.000   0.000   0.000   0.003   0.003  -0.000  -0.003   0.000   0.001   0.001  -0.000
  0.042   0.001   0.000   0.000   0.000   0.000   0.000   0.000   0.002   0.002  -0.000  -0.002  -0.000   0.000   0.000   0.000
 -0.000   0.000   1.123  -0.123  -0.123   0.051   0.001   0.001  -0.000   0.000  -0.000  -0.000  -0.000   0.000   0.000   0.000
 -0.000   0.000  -0.123   1.123   0.123   0.001   0.051  -0.001   0.000  -0.000   0.000   0.000   0.000  -0.000   0.000  -0.000
  0.000   0.000  -0.123   0.123   1.123   0.001  -0.001   0.051   0.000  -0.000   0.000   0.000   0.000  -0.000   0.000  -0.000
  0.000   0.000   0.051   0.001   0.001   0.002   0.000   0.000  -0.000   0.000  -0.000  -0.000  -0.000   0.000   0.000   0.000
  0.000   0.000   0.001   0.051  -0.001   0.000   0.002  -0.000   0.000  -0.000   0.000   0.000   0.000  -0.000   0.000  -0.000
  0.000   0.000   0.001  -0.001   0.051   0.000  -0.000   0.002   0.000  -0.000   0.000   0.000   0.000  -0.000   0.000  -0.000
  0.003   0.002  -0.000   0.000   0.000  -0.000   0.000   0.000   0.038  -0.005  -0.024   0.005   0.000   0.001  -0.000  -0.000
  0.003   0.002   0.000  -0.000  -0.000   0.000  -0.000  -0.000  -0.005   0.038   0.012   0.005  -0.021  -0.000   0.001   0.000
 -0.000  -0.000  -0.000   0.000   0.000  -0.000   0.000   0.000  -0.024   0.012   0.029  -0.012  -0.000  -0.000   0.000   0.000
 -0.003  -0.002  -0.000   0.000   0.000  -0.000   0.000   0.000   0.005   0.005  -0.012   0.038  -0.021   0.000   0.000  -0.000
  0.000  -0.000  -0.000   0.000   0.000  -0.000   0.000   0.000   0.000  -0.021  -0.000  -0.021   0.029  -0.000  -0.000   0.000
  0.001   0.000   0.000  -0.000  -0.000   0.000  -0.000  -0.000   0.001  -0.000  -0.000   0.000  -0.000   0.000   0.000  -0.000
  0.001   0.000   0.000   0.000   0.000   0.000   0.000   0.000  -0.000   0.001   0.000   0.000  -0.000   0.000   0.000   0.000
 -0.000   0.000   0.000  -0.000  -0.000   0.000  -0.000  -0.000  -0.000   0.000   0.000  -0.000   0.000  -0.000   0.000   0.000
 -0.001  -0.000   0.000  -0.000  -0.000   0.000  -0.000  -0.000   0.000   0.000  -0.000   0.001  -0.000  -0.000  -0.000  -0.000
 -0.000   0.000   0.000  -0.000  -0.000   0.000  -0.000  -0.000  -0.000  -0.000   0.000  -0.000   0.000  -0.000  -0.000   0.000


------------------------ aborting loop because EDIFF is reached ----------------------------------------


    CHARGE:  cpu time    0.0048: real time    0.0048
    FORLOC:  cpu time    0.0008: real time    0.0008
    FORHF :  cpu time    0.2636: real time    0.2647
    FORNL :  cpu time    0.0486: real time    0.0490
    FORCOR:  cpu time    0.0113: real time    0.0114
    FORHAR:  cpu time    0.0019: real time    0.0021
    MIXING:  cpu time    0.0002: real time    0.0002
    OFIELD:  cpu time    0.0001: real time    0.0002

 VOLUME and BASIS-vectors are now :
 -----------------------------------------------------------------------------
  energy-cutoff  :      400.00
  volume of cell :      327.28
      direct lattice vectors                 reciprocal lattice vectors
     5.469713400  5.469713400  0.000000000     0.091412468  0.091412468 -0.091412468
     0.000000000  5.469713400  5.469713400    -0.091412468  0.091412468  0.091412468
     5.469713400  0.000000000  5.469713400     0.091412468 -0.091412468  0.091412468

  length of vectors
     7.735342873  7.735342873  7.735342873     0.158331039  0.158331039  0.158331039


 FORCES acting on ions
    electron-ion (+dipol)            ewald-force                    non-local-force                 convergence-correction
 -----------------------------------------------------------------------------------------------
   -.126E-05 -.114E-05 0.417E-07   0.455E-14 0.178E-13 0.455E-14   -.203E-05 0.109E-04 0.116E-04   0.368E-05 -.817E-05 -.989E-05
   0.466E+01 -.466E+01 0.466E+01   -.444E+01 0.444E+01 -.444E+01   0.473E-01 -.473E-01 0.473E-01   -.474E-04 0.280E-04 -.120E-04
   -.960E+01 0.960E+01 0.203E+02   0.888E+01 -.888E+01 -.217E+02   0.188E+00 -.188E+00 0.228E+01   0.588E-05 0.143E-04 0.452E-04
   0.203E+02 0.960E+01 -.960E+01   -.217E+02 -.888E+01 0.888E+01   0.228E+01 -.188E+00 0.188E+00   0.238E-04 -.635E-05 -.133E-04
   -.960E+01 -.203E+02 -.960E+01   0.888E+01 0.217E+02 0.888E+01   0.188E+00 -.228E+01 0.188E+00   0.158E-04 -.280E-04 -.248E-04
   -.729E+00 0.555E+01 -.729E+00   0.115E+01 -.649E+01 0.115E+01   -.512E+00 0.997E+00 -.512E+00   0.275E-04 0.715E-04 0.405E-04
   -.555E+01 0.729E+00 -.729E+00   0.649E+01 -.115E+01 0.115E+01   -.997E+00 0.512E+00 -.512E+00   -.752E-04 -.220E-04 0.231E-04
   -.729E+00 0.729E+00 -.555E+01   0.115E+01 -.115E+01 0.649E+01   -.512E+00 0.512E+00 -.997E+00   0.373E-04 -.490E-04 -.590E-04
   0.391E+01 -.391E+01 0.391E+01   -.368E+01 0.368E+01 -.368E+01   -.874E-01 0.874E-01 -.875E-01   0.129E-04 -.453E-05 0.769E-06
   0.960E+01 0.203E+02 0.960E+01   -.888E+01 -.217E+02 -.888E+01   -.188E+00 0.228E+01 -.188E+00   -.791E-05 0.352E-04 0.219E-04
   -.203E+02 -.960E+01 0.960E+01   0.217E+02 0.888E+01 -.888E+01   -.228E+01 0.188E+00 -.188E+00   -.250E-04 -.253E-05 0.904E-05
   0.960E+01 -.960E+01 -.203E+02   -.888E+01 0.888E+01 0.217E+02   -.188E+00 0.188E+00 -.228E+01   -.753E-05 -.164E-04 -.309E-04
   -.466E+01 0.466E+01 -.466E+01   0.444E+01 -.444E+01 0.444E+01   -.473E-01 0.473E-01 -.473E-01   0.484E-04 -.269E-04 0.184E-04
   -.391E+01 0.391E+01 -.391E+01   0.368E+01 -.368E+01 0.368E+01   0.874E-01 -.875E-01 0.874E-01   -.141E-04 0.505E-05 -.466E-05
   0.729E+00 -.729E+00 0.555E+01   -.115E+01 0.115E+01 -.649E+01   0.512E+00 -.512E+00 0.997E+00   -.382E-04 0.481E-04 0.667E-04
   0.555E+01 -.729E+00 0.729E+00   -.649E+01 0.115E+01 -.115E+01   0.997E+00 -.512E+00 0.512E+00   0.718E-04 0.226E-04 -.288E-04
   0.729E+00 -.555E+01 0.729E+00   -.115E+01 0.649E+01 -.115E+01   0.512E+00 -.997E+00 0.512E+00   -.299E-04 -.640E-04 -.459E-04
 -----------------------------------------------------------------------------------------------
   -.302E-04 0.109E-03 0.131E-03   0.127E-13 0.266E-14 0.115E-13   0.322E-04 -.121E-03 -.142E-03   0.185E-05 -.311E-05 -.362E-05
 
 
 POSITION                                       TOTAL-FORCE (eV/Angst)
 -----------------------------------------------------------------------------------
      2.05114      3.41857      2.05114        -0.000000      0.000004      0.000005
      5.30169      0.16803      5.30169         0.212386     -0.212398      0.212408
      2.80267      8.13676      5.36483        -0.456987      0.456985      1.150468
      5.36483      8.13676      2.80267         1.150454      0.457006     -0.457012
      2.80267      5.57460      2.80267        -0.456999     -1.150449     -0.457000
      8.15559     10.91675      8.15559        -0.163362      0.192388     -0.163360
      5.49239      8.25355      8.15559        -0.192385      0.163358     -0.163357
      8.15559      8.25355      5.49239        -0.163365      0.163359     -0.192377
      5.64207      5.29736      5.64207         0.173089     -0.173086      0.173073
      1.29962      1.26254      1.29962         0.456998      1.150457      0.456991
      4.20717      4.17010      1.29962        -1.150454     -0.457013      0.457003
      1.29962      4.17010      4.20717         0.456993     -0.456994     -1.150456
      4.27031      6.66912      4.27031        -0.212383      0.212396     -0.212409
      3.92993      1.53979      3.92993        -0.173089      0.173081     -0.173079
      6.88612      4.05330      4.07961         0.163366     -0.163362      0.192385
      4.07961      4.05330      6.88612         0.192382     -0.163351      0.163359
      6.88612      6.85982      6.88612         0.163357     -0.192381      0.163357
 -----------------------------------------------------------------------------------
    total drift:                                0.000008     -0.000032     -0.000035


--------------------------------------------------------------------------------------------------------



  FREE ENERGIE OF THE ION-ELECTRON SYSTEM (eV)
  ---------------------------------------------------
  free  energy   TOTEN  =      -149.87979673 eV

  energy  without entropy=     -149.87979673  energy(sigma->0) =     -149.87979673
 


--------------------------------------------------------------------------------------------------------


    POTLOK:  cpu time    0.0124: real time    0.0125


--------------------------------------------------------------------------------------------------------


 writing wavefunctions
     LOOP+:  cpu time    9.5441: real time    9.5855
    4ORBIT:  cpu time    0.0000: real time    0.0000

 total amount of memory used by VASP MPI-rank0   182083. kBytes
=======================================================================

   base      :      30000. kBytes
   nonl-proj :       1257. kBytes
   fftplans  :        698. kBytes
   grid      :       3210. kBytes
   one-center:        132. kBytes
   HF        :         64. kBytes
   nonlr-proj:       8500. kBytes
   wavefun   :        612. kBytes
   fock_wrk  :     137610. kBytes
 
  
  
 General timing and accounting informations for this job:
 ========================================================
  
                  Total CPU time used (sec):       12.114
                            User time (sec):        9.209
                          System time (sec):        2.905
                         Elapsed time (sec):       13.045
  
                   Maximum memory used (kb):     1609892.
                   Average memory used (kb):          N/A
  
                          Minor page faults:       396138
                          Major page faults:            0
                 Voluntary context switches:         1798
