 vasp.6.2.0 18Jan21 (build Nov 12 2021 22:59:13) gamma-only                     
  
 executed on             LinuxIFC date 2022.01.21  20:07:54
 running on   48 total cores
 distrk:  each k-point on   48 cores,    1 groups
 distr:  one band on NCORE=   1 cores,   48 groups


--------------------------------------------------------------------------------------------------------


 INCAR:
   ENCUT = 400
   SIGMA = 0.0001
   EDIFF = 1E-6
   LHFCALC = .TRUE.
   AEXX = 1.0
   ISYM = -1
   ALGO = sub
   NELM = 1
   NBANDS = 480
   NBANDSHIGH = 480

 POTCAR:    PAW Si_GW 04May2012                   
 -----------------------------------------------------------------------------
|                                                                             |
|           W    W    AA    RRRRR   N    N  II  N    N   GGGG   !!!           |
|           W    W   A  A   R    R  NN   N  II  NN   N  G    G  !!!           |
|           W    W  A    A  R    R  N N  N  II  N N  N  G       !!!           |
|           W WW W  AAAAAA  RRRRR   N  N N  II  N  N N  G  GGG   !            |
|           WW  WW  A    A  R   R   N   NN  II  N   NN  G    G                |
|           W    W  A    A  R    R  N    N  II  N    N   GGGG   !!!           |
|                                                                             |
|     For optimal performance we recommend to set                             |
|       NCORE = 2 up to number-of-cores-per-socket                            |
|     NCORE specifies how many cores store one orbital (NPAR=cpu/NCORE).      |
|     This setting can greatly improve the performance of VASP for DFT.       |
|     The default, NCORE=1 might be grossly inefficient on modern             |
|     multi-core architectures or massively parallel machines. Do your        |
|     own testing! More info at https://www.vasp.at/wiki/index.php/NCORE      |
|     Unfortunately you need to use the default for GW and RPA                |
|     calculations (for HF NCORE is supported but not extensively tested      |
|     yet).                                                                   |
|                                                                             |
 -----------------------------------------------------------------------------

 POTCAR:    PAW Si_GW 04May2012                   
   VRHFIN =Si: s2p2                                                                                 
   LEXCH  = PE                                                                                      
   EATOM  =   103.0669 eV,    7.5752 Ry                                                             
                                                                                                    
   TITEL  = PAW Si_GW 04May2012                                                                     
   LULTRA =        F    use ultrasoft PP ?                                                          
   IUNSCR =        1    unscreen: 0-lin 1-nonlin 2-no                                               
   RPACOR =    1.500    partial core radius                                                         
   POMASS =   28.085; ZVAL   =    4.000    mass and valenz                                          
   RCORE  =    1.900    outmost cutoff radius                                                       
   RWIGS  =    2.480; RWIGS  =    1.312    wigner-seitz radius (au A)                               
   ENMAX  =  245.345; ENMIN  =  184.009 eV                                                          
   ICORE  =        3    local potential                                                             
   LCOR   =        T    correct aug charges                                                         
   LPAW   =        T    paw PP                                                                      
   EAUG   =  412.952                                                                                
   DEXC   =    0.000                                                                                
   RMAX   =    1.950    core radius for proj-oper                                                   
   RAUG   =    1.300    factor for augmentation sphere                                              
   RDEP   =    1.993    radius for radial grids                                                     
   RDEPT  =    2.000    core radius for aug-charge                                                  
                                                                                                    
   Atomic configuration                                                                             
    7 entries                                                                                       
     n  l   j            E        occ.                                                              
     1  0  0.50     -1785.8828   2.0000                                                             
     2  0  0.50      -139.4969   2.0000                                                             
     2  1  1.50       -95.5546   6.0000                                                             
     3  0  0.50       -10.8127   2.0000                                                             
     3  1  0.50        -4.0811   2.0000                                                             
     3  2  1.50        -4.0817   0.0000                                                             
     4  3  2.50        -4.0817   0.0000                                                             
   Description                                                                                      
     l       E           TYP  RCUT    TYP  RCUT                                                     
     0    -10.8127223     23  1.900                                                                 
     0     95.2407820     23  1.900                                                                 
     1     -4.0811372     23  1.900                                                                 
     1     54.4233040     23  1.900                                                                 
     2     -8.1634956     23  1.900                                                                 
     2     81.6349560     23  1.900                                                                 
     3     27.2116520     23  1.900                                                                 
  local pseudopotential read in
  partial core-charges read in
  partial kinetic energy density read in
  kinetic energy density of atom read in
  atomic valenz-charges read in
  non local Contribution for L=           0  read in
    real space projection operators read in
  non local Contribution for L=           0  read in
    real space projection operators read in
  non local Contribution for L=           1  read in
    real space projection operators read in
  non local Contribution for L=           1  read in
    real space projection operators read in
  non local Contribution for L=           2  read in
    real space projection operators read in
  non local Contribution for L=           2  read in
    real space projection operators read in
    PAW grid and wavefunctions read in
 
   number of l-projection  operators is LMAX  =           6
   number of lm-projection operators is LMMAX =          18
 
  PAW Si_GW 04May2012                   :
 energy of atom  1       EATOM= -103.0669
 kinetic energy error for atom=    0.0012 (will be added to EATOM!!)
 
 
 POSCAR: cd:
  positions in direct lattice
  velocities in cartesian coordinates
 exchange correlation table for  LEXCH =        8
   RHO(1)=    0.500       N(1)  =     2000
   RHO(2)=  100.500       N(2)  =     4000
 


--------------------------------------------------------------------------------------------------------


 ion  position               nearest neighbor table
   1  0.001  0.001  0.001-   9 2.38  12 2.38  10 2.38
   2  0.496  0.001  0.001-   9 2.38  11 2.38  13 2.38
   3  0.001  0.496  0.001-  10 2.38  11 2.38  14 2.38
   4  0.500  0.500  0.000-   9 2.37  10 2.37  11 2.37  15 2.37
   5  0.001  0.001  0.496-  12 2.38  13 2.38  14 2.38
   6  0.500  0.000  0.500-   9 2.37  12 2.37  13 2.37  15 2.37
   7  0.000  0.500  0.500-  10 2.37  12 2.37  14 2.37  15 2.37
   8  0.500  0.500  0.500-  11 2.37  13 2.37  14 2.37  15 2.37
   9  0.625  0.125  0.125-   4 2.37   6 2.37   2 2.38   1 2.38
  10  0.125  0.625  0.125-   4 2.37   7 2.37   3 2.38   1 2.38
  11  0.625  0.625  0.125-   4 2.37   8 2.37   2 2.38   3 2.38
  12  0.125  0.125  0.625-   6 2.37   7 2.37   5 2.38   1 2.38
  13  0.625  0.125  0.625-   6 2.37   8 2.37   2 2.38   5 2.38
  14  0.125  0.625  0.625-   7 2.37   8 2.37   3 2.38   5 2.38
  15  0.625  0.625  0.625-   4 2.37   7 2.37   6 2.37   8 2.37
 

IMPORTANT INFORMATION: All symmetrisations will be switched off!
NOSYMM: (Re-)initialisation of all symmetry stuff for point group C_1.


----------------------------------------------------------------------------------------

                                     Primitive cell                                     

  volume of cell :     327.2832

  direct lattice vectors                    reciprocal lattice vectors
     5.469713400  5.469713400  0.000000000     0.091412468  0.091412468 -0.091412468
     0.000000000  5.469713400  5.469713400    -0.091412468  0.091412468  0.091412468
     5.469713400  0.000000000  5.469713400     0.091412468 -0.091412468  0.091412468

  length of vectors
     7.735342873  7.735342873  7.735342873     0.158331039  0.158331039  0.158331039

  position of ions in fractional coordinates (direct lattice)
     0.001371464  0.001371464  0.001371464
     0.495885607  0.001371464  0.001371464
     0.001371464  0.495885607  0.001371464
     0.499999461  0.499999461  0.000001617
     0.001371464  0.001371464  0.495885607
     0.499999461  0.000001617  0.499999461
     0.000001617  0.499999461  0.499999461
     0.499999461  0.499999461  0.499999461
     0.624789722  0.125210278  0.125210278
     0.125210278  0.624789722  0.125210278
     0.624789722  0.624789722  0.125210278
     0.125210278  0.125210278  0.624789722
     0.624789722  0.125210278  0.624789722
     0.125210278  0.624789722  0.624789722
     0.625000000  0.625000000  0.625000000

  ion indices of the primitive-cell ions
   primitive index   ion index
                 1           1
                 2           2
                 3           3
                 4           4
                 5           5
                 6           6
                 7           7
                 8           8
                 9           9
                10          10
                11          11
                12          12
                13          13
                14          14
                15          15

----------------------------------------------------------------------------------------

 
 
 KPOINTS: Automatic mesh                          

Automatic generation of k-mesh.
 Grid dimensions read from file:
 generate k-points for:    1    1    1

 Generating k-lattice:

  Cartesian coordinates                     Fractional coordinates (reciprocal lattice)
     0.091412468  0.091412468 -0.091412468     1.000000000  0.000000000  0.000000000
    -0.091412468  0.091412468  0.091412468     0.000000000  1.000000000 -0.000000000
     0.091412468 -0.091412468  0.091412468    -0.000000000 -0.000000000  1.000000000

  Length of vectors
     0.158331039  0.158331039  0.158331039

  Shift w.r.t. Gamma in fractional coordinates (k-lattice)
     0.000000000  0.000000000  0.000000000

 
 Subroutine IBZKPT returns following result:
 ===========================================
 
 Found      1 irreducible k-points:
 
 Following reciprocal coordinates:
            Coordinates               Weight
  0.000000  0.000000  0.000000      1.000000
 
 Following cartesian coordinates:
            Coordinates               Weight
  0.000000  0.000000  0.000000      1.000000
 
 WARNING: full set of k-points will be restricted to regular points only.

 
 Subroutine IBZKPT_HF returns following result:
 ==============================================
 
 Found      1 k-points in 1st BZ
 the following      1 k-points will be used (e.g. in the exchange kernel)
 Following reciprocal coordinates:   # in IRBZ
  0.000000  0.000000  0.000000    1.00000000   1 t-inv F


--------------------------------------------------------------------------------------------------------




 Dimension of arrays:
   k-points           NKPTS =      1   k-points in BZ     NKDIM =      1   number of bands    NBANDS=    480
   number of dos      NEDOS =    301   number of ions     NIONS =     15
   non local maximal  LDIM  =      6   non local SUM 2l+1 LMDIM =     18
   total plane-waves  NPLWV =  64000
   max r-space proj   IRMAX =      1   max aug-charges    IRDMAX=   9797
   dimension x,y,z NGX =    40 NGY =   40 NGZ =   40
   dimension x,y,z NGXF=    80 NGYF=   80 NGZF=   80
   support grid    NGXF=    80 NGYF=   80 NGZF=   80
   ions per type =              15
   lowest and highest band optimized NBANDSLOW=      -1 NBANDSHIGH=     480
   NGX,Y,Z   is equivalent  to a cutoff of   8.60,  8.60,  8.60 a.u.
   NGXF,Y,Z  is equivalent  to a cutoff of  17.19, 17.19, 17.19 a.u.

 SYSTEM =  unknown system                          
 POSCAR =  cd:                                     

 Startparameter for this run:
   NWRITE =      2    write-flag & timer
   PREC   = normal    normal or accurate (medium, high low for compatibility)
   ISTART =      1    job   : 0-new  1-cont  2-samecut
   ICHARG =      0    charge: 1-file 2-atom 10-const
   ISPIN  =      1    spin polarized calculation?
   LNONCOLLINEAR =      F non collinear calculations
   LSORBIT =      F    spin-orbit coupling
   INIWAV =      1    electr: 0-lowe 1-rand  2-diag
   LASPH  =      F    aspherical Exc in radial PAW
   METAGGA=      F    non-selfconsistent MetaGGA calc.

 Electronic Relaxation 1
   ENCUT  =  400.0 eV  29.40 Ry    5.42 a.u.  12.61 12.61 12.61*2*pi/ulx,y,z
   ENINI  =  400.0     initial cutoff
   ENAUG  =  413.0 eV  augmentation charge cutoff
   NELM   =      1;   NELMIN=  2; NELMDL=  0     # of ELM steps 
   EDIFF  = 0.1E-05   stopping-criterion for ELM
   LREAL  =      F    real-space projection
   NLSPLINE    = F    spline interpolate recip. space projectors
   LCOMPAT=      F    compatible to vasp.4.4
   GGA_COMPAT  = T    GGA compatible to vasp.4.4-vasp.4.6
   LMAXPAW     = -100 max onsite density
   LMAXMIX     =    2 max onsite mixed and CHGCAR
   VOSKOWN=      0    Vosko Wilk Nusair interpolation
   ROPT   =    0.00000
 Ionic relaxation
   EDIFFG = 0.1E-04   stopping-criterion for IOM
   NSW    =      0    number of steps for IOM
   NBLOCK =      1;   KBLOCK =      1    inner block; outer block 
   IBRION =     -1    ionic relax: 0-MD 1-quasi-New 2-CG
   NFREE  =      0    steps in history (QN), initial steepest desc. (CG)
   ISIF   =      0    stress and relaxation
   IWAVPR =     10    prediction:  0-non 1-charg 2-wave 3-comb
   ISYM   =     -1    0-nonsym 1-usesym 2-fastsym
   LCORR  =      T    Harris-Foulkes like correction to forces

   POTIM  = 0.5000    time-step for ionic-motion
   TEIN   =    0.0    initial temperature
   TEBEG  =    0.0;   TEEND  =   0.0 temperature during run
   SMASS  =  -3.00    Nose mass-parameter (am)
   estimated Nose-frequenzy (Omega)   =  0.10E-29 period in steps = 0.13E+47 mass=  -0.137E-26a.u.
   SCALEE = 1.0000    scale energy and forces
   NPACO  =    256;   APACO  = 16.0  distance and # of slots for P.C.
   PSTRESS=    0.0 pullay stress

  Mass of Ions in am
   POMASS =  28.09
  Ionic Valenz
   ZVAL   =   4.00
  Atomic Wigner-Seitz radii
   RWIGS  =  -1.00
  virtual crystal weights 
   VCA    =   1.00
   NELECT =      60.0000    total number of electrons
   NUPDOWN=      -1.0000    fix difference up-down

 DOS related values:
   EMIN   =  10.00;   EMAX   =-10.00  energy-range for DOS
   EFERMI =   0.00
   ISMEAR =     1;   SIGMA  =   0.00  broadening in eV -4-tet -1-fermi 0-gaus

 Electronic relaxation 2 (details)
   IALGO  =      4    algorithm
   LDIAG  =      T    sub-space diagonalisation (order eigenvalues)
   LSUBROT=      F    optimize rotation matrix (better conditioning)
   TURBO    =      0    0=normal 1=particle mesh
   IRESTART =      0    0=no restart 2=restart with 2 vectors
   NREBOOT  =      0    no. of reboots
   NMIN     =      0    reboot dimension
   EREF     =   0.00    reference energy to select bands
   IMIX   =      1    mixing-type and parameters
     AMIX     =   0.40;   BMIX     =  1.00
     AMIX_MAG =   1.60;   BMIX_MAG =  1.00
     AMIN     =   0.10
     WC   =   100.;   INIMIX=   1;  MIXPRE=   1;  MAXMIX= -45

 Intra band minimization:
   WEIMIN = 0.0000     energy-eigenvalue tresh-hold
   EBREAK =  0.52E-09  absolut break condition
   DEPER  =   0.30     relativ break condition  

   TIME   =   0.40     timestep for ELM

  volume/ion in A,a.u.               =      21.82       147.24
  Fermi-wavevector in a.u.,A,eV,Ry     =   0.930002  1.757449 11.767737  0.864904
  Thomas-Fermi vector in A             =   2.056345
 
 Write flags
   LWAVE        =      T    write WAVECAR
   LDOWNSAMPLE  =      F    k-point downsampling of WAVECAR
   LCHARG       =      T    write CHGCAR
   LVTOT        =      F    write LOCPOT, total local potential
   LVHAR        =      F    write LOCPOT, Hartree potential only
   LELF         =      F    write electronic localiz. function (ELF)
   LORBIT       =      0    0 simple, 1 ext, 2 COOP (PROOUT), +10 PAW based schemes


 Dipole corrections
   LMONO  =      F    monopole corrections only (constant potential shift)
   LDIPOL =      F    correct potential (dipole corrections)
   IDIPOL =      0    1-x, 2-y, 3-z, 4-all directions 
   EPSILON=  1.0000000 bulk dielectric constant

 Exchange correlation treatment:
   GGA     =    --    GGA type
   LEXCH   =     8    internal setting for exchange type
   VOSKOWN=      0    Vosko Wilk Nusair interpolation
   EXXOEP  =     0    0=HF, 1=EXX-LHF (local Hartree Fock) 2=EXX OEP
   LHFCALC =     T    Hartree Fock is set to
   LSYMGRAD=     F    symmetrize gradient (conserves proper symmetry)
   PRECFOCK=normal    Normal, Fast or Accurate (Low or Medium for compatibility)
   LRHFCALC=     F    long range Hartree Fock
   LRSCOR  =     F    long range correlation only (use DFT for short range part)
   LTHOMAS =     F    Thomas Fermi screening in HF
   LMODELHF=     F    short range full HF, long range fraction AEXX
   LFOCKACE=     T    use Adeptively-Compressed-Exchange operator
   ENCUT4O =  -1.0   cutoff for four orbital integrals eV
   LMAXFOCK=     4    L truncation for augmentation on plane wave grid
   LMAXFOCKAE=  -1    L truncation for all-electron charge restoration on plane wave grid
   NMAXFOCKAE=   1    number of basis functions for all-electron charge restoration
   LFOCKAEDFT=     F  apply the AE augmentation even for DFT
   NKREDX  =     1    reduce k-point grid by
   NKREDY  =     1    reduce k-point grid by
   NKREDZ  =     1    reduce k-point grid by
   SHIFTRED=     F    shift reduced grid of Gamma
   HFKIDENT=     F    idential grid for each k-point
   ODDONLY =     F    use only odd q-grid points
   EVENONLY=     F    use only even q-grid points
   HFALPHA =   -1.0000 decay constant for conv. correction
   MCALPHA =    0.0000 extent of test-charge in conv. correction in multipole expansion
   AEXX    =    1.0000 exact exchange contribution
   HFSCREEN=    0.0000 screening length (either q_TF or 0.3 A-1)
   HFSCREENC=   0.0000 screening length for correlation (either q_TF or 0.3 A-1)
   HFRCUT  =    0.0000 spherical cutoff for potential kernel
   ALDAX   =    0.0000 LDA exchange part
   AGGAX   =    0.0000 GGA exchange part
   ALDAC   =    0.0000 LDA correlation
   AGGAC   =    0.0000 GGA correlation
   ENCUTFOCK=  -1.0 apply spherical cutoff to Coloumb kernel
   NBANDSGWLOW=     1    first orbital included in HF term
   NBLOCK_FOCK=    64    blocking factor in FOCK_ACC
 Linear response parameters
   LEPSILON=     F    determine dielectric tensor
   LRPA    =     F    only Hartree local field effects (RPA)
   LNABLA  =     F    use nabla operator in PAW spheres
   LVEL    =     F    velocity operator in full k-point grid
   LINTERFAST=   F  fast interpolation
   KINTER  =     0    interpolate to denser k-point grid
   CSHIFT  =0.1000    complex shift for real part using Kramers Kronig
   OMEGAMAX=  -1.0    maximum frequency
   DEG_THRESHOLD= 0.2000000E-02 threshold for treating states as degnerate
   RTIME   =   -0.100 relaxation time in fs
  (WPLASMAI=    0.000 imaginary part of plasma frequency in eV, 0.658/RTIME)
   DFIELD  = 0.0000000 0.0000000 0.0000000 field for delta impulse in time
 
 Orbital magnetization related:
   ORBITALMAG=     F  switch on orbital magnetization
   LCHIMAG   =     F  perturbation theory with respect to B field
   DQ        =  0.001000  dq finite difference perturbation B field
   LLRAUG    =     F  two centre corrections for induced B field



--------------------------------------------------------------------------------------------------------


 Static calculation
 charge density and potential will be updated during run
 non-spin polarized calculation
 Subrot: only subspace diagonalization (rotation)
    band-by band algorithm
 perform sub-space diagonalisation
    before iterative eigenvector-optimisation
 Kerker-like  mixing scheme
 using additional bands          450
 reciprocal scheme for non local part
 use partial core corrections
 calculate Harris-corrections to forces 
   (improved forces if not selfconsistent)
 use gradient corrections 
 use of overlap-Matrix (Vanderbilt PP)
 Methfessel and Paxton  Order N= 1 SIGMA  =   0.00


--------------------------------------------------------------------------------------------------------


  energy-cutoff  :      400.00
  volume of cell :      327.28
      direct lattice vectors                 reciprocal lattice vectors
     5.469713400  5.469713400  0.000000000     0.091412468  0.091412468 -0.091412468
     0.000000000  5.469713400  5.469713400    -0.091412468  0.091412468  0.091412468
     5.469713400  0.000000000  5.469713400     0.091412468 -0.091412468  0.091412468

  length of vectors
     7.735342873  7.735342873  7.735342873     0.158331039  0.158331039  0.158331039


 
 old parameters found on file WAVECAR:
  energy-cutoff  :      400.00
  volume of cell :      327.28
      direct lattice vectors                 reciprocal lattice vectors
     5.469713400  5.469713400  0.000000000     0.091412468  0.091412468 -0.091412468
     0.000000000  5.469713400  5.469713400    -0.091412468  0.091412468  0.091412468
     5.469713400  0.000000000  5.469713400     0.091412468 -0.091412468  0.091412468

  length of vectors

 
 k-points in units of 2pi/SCALE and weight: Automatic mesh                          
   0.00000000  0.00000000  0.00000000       1.000
 
 k-points in reciprocal lattice and weights: Automatic mesh                          
   0.00000000  0.00000000  0.00000000       1.000
 
 position of ions in fractional coordinates (direct lattice) 
   0.00137146  0.00137146  0.00137146
   0.49588561  0.00137146  0.00137146
   0.00137146  0.49588561  0.00137146
   0.49999946  0.49999946  0.00000162
   0.00137146  0.00137146  0.49588561
   0.49999946  0.00000162  0.49999946
   0.00000162  0.49999946  0.49999946
   0.49999946  0.49999946  0.49999946
   0.62478972  0.12521028  0.12521028
   0.12521028  0.62478972  0.12521028
   0.62478972  0.62478972  0.12521028
   0.12521028  0.12521028  0.62478972
   0.62478972  0.12521028  0.62478972
   0.12521028  0.62478972  0.62478972
   0.62500000  0.62500000  0.62500000
 
 position of ions in cartesian coordinates  (Angst):
   0.01500303  0.01500303  0.01500303
   2.71985367  2.71985367  0.01500303
   0.01500303  2.71985367  2.71985367
   2.73486260  5.46970750  2.73486260
   2.71985367  0.01500303  2.71985367
   5.46970750  2.73486260  2.73486260
   2.73486260  2.73486260  5.46970750
   5.46970750  5.46970750  5.46970750
   4.10228505  4.10228505  1.36972867
   1.36972867  4.10228505  4.10228505
   4.10228505  6.83484143  4.10228505
   4.10228505  1.36972867  4.10228505
   6.83484143  4.10228505  4.10228505
   4.10228505  4.10228505  6.83484143
   6.83714175  6.83714175  6.83714175
 


--------------------------------------------------------------------------------------------------------


 use serial FFT for orbitals x direction half grid
 k-point   1 :   0.0000 0.0000 0.0000  plane waves:    2981

 maximum and minimum number of plane-waves per node :      2981     2981

 maximum number of plane-waves:      2981
 maximum index in each direction: 
   IXMAX=   12   IYMAX=   12   IZMAX=   12
   IXMIN=    0   IYMIN=  -10   IZMIN=  -10


 serial   3D FFT for wavefunctions
 parallel 3D FFT for charge:
    minimum data exchange during FFTs selected (reduces bandwidth)

 
 Radii for the augmentation spheres in the non-local exchange
 for species   1 augmentation radius   1.405 (default was   1.124)
       energy cutoff for augmentation   1600.0
 Maximum index for augmentation-charges in exchange         2259
  SETUP_FOCK is finished

 total amount of memory used by VASP MPI-rank0    43170. kBytes
=======================================================================

   base      :      30000. kBytes
   nonl-proj :       1161. kBytes
   fftplans  :        698. kBytes
   grid      :       3210. kBytes
   one-center:        116. kBytes
   HF        :         64. kBytes
   nonlr-proj:       7415. kBytes
   wavefun   :        506. kBytes
 
     INWAV:  cpu time    0.0466: real time    0.0470
 charge density for first step will be calculated from the start-wavefunctions


--------------------------------------------------------------------------------------------------------


 Maximum index for augmentation-charges          499 (set IRDMAX)


--------------------------------------------------------------------------------------------------------


 initial charge from wavefunction
    FEWALD:  cpu time    0.0006: real time    0.0006


--------------------------------------- Iteration      1(   1)  ---------------------------------------


    POTLOK:  cpu time    0.0089: real time    0.0093
    SETDIJ:  cpu time    0.0054: real time    0.0055
    EDDIAG:  cpu time    7.0873: real time    7.1127
       DOS:  cpu time    0.0006: real time    0.0010
    --------------------------------------------
      LOOP:  cpu time    7.1022: real time    7.1285

 eigenvalue-minimisations  :     0
 total energy-change (2. order) :-0.1313264E+03  ( 0.0000000E+00)
 number of electron      59.9999980 magnetization 
 augmentation part       -3.2406981 magnetization 

 Free energy of the ion-electron system (eV)
  ---------------------------------------------------
  alpha Z        PSCENC =        41.88619531
  Ewald energy   TEWEN  =     -1640.06298675
  -Hartree energ DENC   =      -156.35031582
  -exchange      EXHF   =       444.04218684
  -V(xc)+E(xc)   XCENC  =         0.00000000
  PAW double counting   =      1933.84374951    -1937.26905581
  entropy T*S    EENTRO =         0.00000000
  eigenvalues    EBANDS =      -228.47379121
  atomic energy  EATOM  =      1411.05760457
  Solvation  Ediel_sol  =         0.00000000
  ---------------------------------------------------
  free energy    TOTEN  =      -131.32641335 eV

  energy without entropy =     -131.32641335  energy(sigma->0) =     -131.32641335
  exchange ACFDT corr.  =      -856.90738134  see jH, gK, PRB 81, 115126


--------------------------------------------------------------------------------------------------------




 average (electrostatic) potential at core
  the test charge radii are     1.1243
  (the norm of the test charge is              1.0000)
       1 -50.3660       2 -52.1759       3 -52.1759       4 -50.5476       5 -52.1761
       6 -50.5476       7 -50.5476       8 -50.6260       9 -50.6594      10 -50.6595
      11 -51.1826      12 -50.6595      13 -51.1826      14 -51.1826      15 -50.4198
 
 
 
 E-fermi :   4.5591     XC(G=0):   0.0000     alpha+bet :-10.6543

 Fermi energy:         4.5590520722

 k-point     1 :       0.0000    0.0000    0.0000
  band No.  band energies     occupation 
      1     -13.4604      2.00000
      2     -10.4988      2.00000
      3     -10.4988      2.00000
      4     -10.4492      2.00000
      5      -9.6252      2.00000
      6      -7.9394      2.00000
      7      -7.9394      2.00000
      8      -7.7508      2.00000
      9      -7.7508      2.00000
     10      -7.6513      2.00000
     11      -6.7405      2.00000
     12      -6.1291      2.00000
     13      -6.1291      2.00000
     14      -6.0762      2.00000
     15      -1.6453      2.00000
     16      -1.3316      2.00000
     17      -1.2617      2.00000
     18      -1.2617      2.00000
     19      -0.7464      2.00000
     20      -0.7151      2.00000
     21      -0.7151      2.00000
     22       0.5184      2.00000
     23       0.5184      2.00000
     24       0.5769      2.00000
     25       0.6727      2.00000
     26       0.6727      2.00000
     27       1.4908      2.00000
     28       1.6236      2.00000
     29       1.6236      2.00000
     30       4.3820      2.00000
     31      10.2116      0.00000
     32      10.2265      0.00000
     33      10.5587      0.00000
     34      10.5645      0.00000
     35      10.6745      0.00000
     36      10.7146      0.00000
     37      10.8354      0.00000
     38      10.8479      0.00000
     39      11.6452      0.00000
     40      11.6495      0.00000
     41      11.6750      0.00000
     42      12.9666      0.00000
     43      13.0570      0.00000
     44      13.0800      0.00000
     45      13.0841      0.00000
     46      13.5602      0.00000
     47      13.5819      0.00000
     48      13.5835      0.00000
     49      13.8545      0.00000
     50      13.8562      0.00000
     51      14.6097      0.00000
     52      14.6753      0.00000
     53      14.6822      0.00000
     54      15.4206      0.00000
     55      18.1323      0.00000
     56      18.4198      0.00000
     57      18.6336      0.00000
     58      18.7010      0.00000
     59      18.7337      0.00000
     60      18.9736      0.00000
     61      18.9812      0.00000
     62      21.9235      0.00000
     63      21.9303      0.00000
     64      21.9966      0.00000
     65      22.1270      0.00000
     66      22.1340      0.00000
     67      22.1402      0.00000
     68      22.1465      0.00000
     69      22.1589      0.00000
     70      22.1760      0.00000
     71      22.2762      0.00000
     72      22.2795      0.00000
     73      22.3109      0.00000
     74      22.3868      0.00000
     75      22.4031      0.00000
     76      22.4644      0.00000
     77      22.5010      0.00000
     78      22.5093      0.00000
     79      22.6169      0.00000
     80      22.6731      0.00000
     81      22.6819      0.00000
     82      22.7415      0.00000
     83      22.9227      0.00000
     84      22.9366      0.00000
     85      22.9556      0.00000
     86      23.1308      0.00000
     87      23.1438      0.00000
     88      23.2596      0.00000
     89      23.5537      0.00000
     90      23.5575      0.00000
     91      23.7359      0.00000
     92      23.7694      0.00000
     93      23.8556      0.00000
     94      24.4050      0.00000
     95      24.4714      0.00000
     96      24.4800      0.00000
     97      24.4862      0.00000
     98      24.5315      0.00000
     99      24.6011      0.00000
    100      24.6057      0.00000
    101      24.9514      0.00000
    102      25.0080      0.00000
    103      25.1267      0.00000
    104      25.2091      0.00000
    105      25.2490      0.00000
    106      25.2873      0.00000
    107      25.8716      0.00000
    108      25.8856      0.00000
    109      25.9029      0.00000
    110      27.4842      0.00000
    111      28.0158      0.00000
    112      28.0921      0.00000
    113      28.1467      0.00000
    114      31.3388      0.00000
    115      31.8133      0.00000
    116      32.0900      0.00000
    117      32.2219      0.00000
    118      32.3080      0.00000
    119      32.3504      0.00000
    120      32.3863      0.00000
    121      32.5261      0.00000
    122      32.5979      0.00000
    123      32.7592      0.00000
    124      32.9224      0.00000
    125      32.9273      0.00000
    126      33.0201      0.00000
    127      33.1314      0.00000
    128      33.2093      0.00000
    129      33.3168      0.00000
    130      33.3993      0.00000
    131      33.4301      0.00000
    132      33.4512      0.00000
    133      33.5024      0.00000
    134      33.5500      0.00000
    135      33.6491      0.00000
    136      33.7964      0.00000
    137      33.8158      0.00000
    138      33.9037      0.00000
    139      34.2312      0.00000
    140      34.7517      0.00000
    141      34.8253      0.00000
    142      34.9607      0.00000
    143      35.1756      0.00000
    144      35.2438      0.00000
    145      35.3298      0.00000
    146      35.3756      0.00000
    147      35.4465      0.00000
    148      35.4812      0.00000
    149      35.5190      0.00000
    150      35.7059      0.00000
    151      35.7548      0.00000
    152      35.9268      0.00000
    153      35.9875      0.00000
    154      36.1825      0.00000
    155      36.2384      0.00000
    156      36.3739      0.00000
    157      36.7475      0.00000
    158      36.8946      0.00000
    159      36.9979      0.00000
    160      37.5155      0.00000
    161      37.6252      0.00000
    162      37.7095      0.00000
    163      37.9318      0.00000
    164      38.0853      0.00000
    165      39.6700      0.00000
    166      39.7865      0.00000
    167      40.1179      0.00000
    168      40.4047      0.00000
    169      40.5706      0.00000
    170      40.5834      0.00000
    171      40.6555      0.00000
    172      40.8339      0.00000
    173      40.9055      0.00000
    174      41.0206      0.00000
    175      41.0749      0.00000
    176      41.1214      0.00000
    177      41.2460      0.00000
    178      41.3544      0.00000
    179      41.4012      0.00000
    180      41.7069      0.00000
    181      41.7703      0.00000
    182      41.8280      0.00000
    183      41.8554      0.00000
    184      41.9950      0.00000
    185      42.0047      0.00000
    186      42.0838      0.00000
    187      42.2480      0.00000
    188      42.4909      0.00000
    189      42.6611      0.00000
    190      42.8697      0.00000
    191      42.9172      0.00000
    192      42.9624      0.00000
    193      42.9902      0.00000
    194      43.2047      0.00000
    195      43.2513      0.00000
    196      43.4899      0.00000
    197      43.6508      0.00000
    198      43.9218      0.00000
    199      44.1066      0.00000
    200      44.2099      0.00000
    201      44.7163      0.00000
    202      44.7763      0.00000
    203      44.9352      0.00000
    204      45.0909      0.00000
    205      45.6700      0.00000
    206      45.8199      0.00000
    207      46.0969      0.00000
    208      46.4695      0.00000
    209      46.9721      0.00000
    210      47.2246      0.00000
    211      47.4028      0.00000
    212      47.4702      0.00000
    213      48.6762      0.00000
    214      48.8696      0.00000
    215      49.1242      0.00000
    216      49.2407      0.00000
    217      49.3160      0.00000
    218      49.4352      0.00000
    219      49.5096      0.00000
    220      49.5374      0.00000
    221      49.6513      0.00000
    222      49.7481      0.00000
    223      49.8568      0.00000
    224      49.9231      0.00000
    225      50.1622      0.00000
    226      50.2021      0.00000
    227      50.2974      0.00000
    228      50.5117      0.00000
    229      50.8665      0.00000
    230      50.8809      0.00000
    231      51.1132      0.00000
    232      51.2320      0.00000
    233      51.2567      0.00000
    234      51.4475      0.00000
    235      51.5217      0.00000
    236      52.1874      0.00000
    237      52.3580      0.00000
    238      52.5348      0.00000
    239      52.7260      0.00000
    240      52.9851      0.00000
    241      53.0731      0.00000
    242      53.1311      0.00000
    243      53.1519      0.00000
    244      53.4455      0.00000
    245      53.5424      0.00000
    246      53.6667      0.00000
    247      53.7736      0.00000
    248      54.0809      0.00000
    249      54.1822      0.00000
    250      54.3665      0.00000
    251      54.4339      0.00000
    252      54.5188      0.00000
    253      54.9215      0.00000
    254      55.2161      0.00000
    255      55.3394      0.00000
    256      55.4059      0.00000
    257      55.4916      0.00000
    258      55.5639      0.00000
    259      55.6771      0.00000
    260      55.8369      0.00000
    261      55.9919      0.00000
    262      56.2285      0.00000
    263      56.5920      0.00000
    264      56.6700      0.00000
    265      56.8531      0.00000
    266      57.0005      0.00000
    267      57.1435      0.00000
    268      57.3167      0.00000
    269      57.4153      0.00000
    270      57.5865      0.00000
    271      57.9450      0.00000
    272      57.9958      0.00000
    273      58.4123      0.00000
    274      58.5502      0.00000
    275      58.6662      0.00000
    276      59.0621      0.00000
    277      59.8096      0.00000
    278      60.1873      0.00000
    279      60.3706      0.00000
    280      60.7743      0.00000
    281      60.8640      0.00000
    282      60.9022      0.00000
    283      61.0810      0.00000
    284      61.0984      0.00000
    285      61.1418      0.00000
    286      61.2290      0.00000
    287      61.3515      0.00000
    288      61.4179      0.00000
    289      61.4255      0.00000
    290      61.5133      0.00000
    291      61.6433      0.00000
    292      61.6783      0.00000
    293      61.7231      0.00000
    294      61.8701      0.00000
    295      61.9774      0.00000
    296      62.0107      0.00000
    297      62.1542      0.00000
    298      62.2373      0.00000
    299      62.3858      0.00000
    300      62.4219      0.00000
    301      62.5911      0.00000
    302      62.6505      0.00000
    303      62.8224      0.00000
    304      62.9292      0.00000
    305      63.1606      0.00000
    306      63.2944      0.00000
    307      63.3736      0.00000
    308      63.4462      0.00000
    309      63.5852      0.00000
    310      63.7450      0.00000
    311      63.8199      0.00000
    312      63.9869      0.00000
    313      64.0047      0.00000
    314      64.2571      0.00000
    315      64.5939      0.00000
    316      64.9152      0.00000
    317      65.0522      0.00000
    318      65.0633      0.00000
    319      65.4702      0.00000
    320      66.2823      0.00000
    321      66.3548      0.00000
    322      66.4718      0.00000
    323      66.9632      0.00000
    324      67.0967      0.00000
    325      67.1295      0.00000
    326      67.1495      0.00000
    327      67.3870      0.00000
    328      67.4524      0.00000
    329      67.6053      0.00000
    330      67.7344      0.00000
    331      67.9045      0.00000
    332      67.9727      0.00000
    333      68.0105      0.00000
    334      68.2720      0.00000
    335      68.5213      0.00000
    336      68.5526      0.00000
    337      68.6127      0.00000
    338      68.7103      0.00000
    339      68.7426      0.00000
    340      68.7821      0.00000
    341      69.0042      0.00000
    342      69.1050      0.00000
    343      69.1778      0.00000
    344      69.3873      0.00000
    345      69.5597      0.00000
    346      69.6433      0.00000
    347      69.9680      0.00000
    348      69.9944      0.00000
    349      70.3854      0.00000
    350      70.5872      0.00000
    351      70.6754      0.00000
    352      70.8176      0.00000
    353      70.9544      0.00000
    354      71.2364      0.00000
    355      71.3444      0.00000
    356      71.5671      0.00000
    357      71.7246      0.00000
    358      71.9480      0.00000
    359      72.3710      0.00000
    360      72.6492      0.00000
    361      72.8069      0.00000
    362      73.0337      0.00000
    363      73.3822      0.00000
    364      73.6312      0.00000
    365      73.9779      0.00000
    366      74.1788      0.00000
    367      74.3401      0.00000
    368      74.5638      0.00000
    369      74.9091      0.00000
    370      75.5825      0.00000
    371      75.7367      0.00000
    372      76.0353      0.00000
    373      76.1723      0.00000
    374      76.5429      0.00000
    375      76.8325      0.00000
    376      76.9751      0.00000
    377      77.4990      0.00000
    378      77.6524      0.00000
    379      77.8993      0.00000
    380      77.9336      0.00000
    381      78.0988      0.00000
    382      78.1449      0.00000
    383      78.3266      0.00000
    384      78.5045      0.00000
    385      78.6128      0.00000
    386      78.7413      0.00000
    387      78.8984      0.00000
    388      79.3708      0.00000
    389      79.7943      0.00000
    390      79.8698      0.00000
    391      80.2775      0.00000
    392      80.5395      0.00000
    393      80.5767      0.00000
    394      80.8323      0.00000
    395      81.0519      0.00000
    396      81.2246      0.00000
    397      81.7197      0.00000
    398      81.8862      0.00000
    399      81.9768      0.00000
    400      82.1615      0.00000
    401      82.2981      0.00000
    402      82.4048      0.00000
    403      82.5533      0.00000
    404      82.7692      0.00000
    405      83.0141      0.00000
    406      83.0855      0.00000
    407      83.6397      0.00000
    408      83.8164      0.00000
    409      84.0889      0.00000
    410      84.3922      0.00000
    411      84.4639      0.00000
    412      84.6932      0.00000
    413      84.9250      0.00000
    414      85.2328      0.00000
    415      85.5278      0.00000
    416      85.8593      0.00000
    417      85.9543      0.00000
    418      86.1271      0.00000
    419      86.2077      0.00000
    420      86.5879      0.00000
    421      86.7099      0.00000
    422      86.8345      0.00000
    423      87.0155      0.00000
    424      87.3699      0.00000
    425      87.5249      0.00000
    426      87.5545      0.00000
    427      87.6393      0.00000
    428      87.8882      0.00000
    429      87.9780      0.00000
    430      88.4517      0.00000
    431      88.7972      0.00000
    432      88.9918      0.00000
    433      89.2685      0.00000
    434      89.4984      0.00000
    435      89.6827      0.00000
    436      90.1497      0.00000
    437      90.2094      0.00000
    438      90.4192      0.00000
    439      90.7459      0.00000
    440      91.0145      0.00000
    441      91.1800      0.00000
    442      91.2926      0.00000
    443      93.0009      0.00000
    444      93.1436      0.00000
    445      93.9639      0.00000
    446      94.1356      0.00000
    447      94.4982      0.00000
    448      94.8867      0.00000
    449      95.0846      0.00000
    450      95.3183      0.00000
    451      95.4464      0.00000
    452      95.7067      0.00000
    453      95.9090      0.00000
    454      96.0715      0.00000
    455      96.5006      0.00000
    456      96.5852      0.00000
    457      96.6440      0.00000
    458      96.8164      0.00000
    459      97.0308      0.00000
    460      97.2912      0.00000
    461      97.6066      0.00000
    462      97.8597      0.00000
    463      98.3199      0.00000
    464      98.5979      0.00000
    465      98.8541      0.00000
    466      99.1704      0.00000
    467      99.4422      0.00000
    468      99.5903      0.00000
    469      99.7805      0.00000
    470      99.9548      0.00000
    471     100.2404      0.00000
    472     100.2754      0.00000
    473     100.3916      0.00000
    474     100.5886      0.00000
    475     100.8314      0.00000
    476     101.6747      0.00000
    477     102.0535      0.00000
    478     102.3633      0.00000
    479     103.5910      0.00000
    480     106.8032      0.00000


--------------------------------------------------------------------------------------------------------


 soft charge-density along one line, spin component           1
         0         1         2         3         4         5         6         7         8         9
 total charge-density along one line
 
 pseudopotential strength for first ion, spin component:           1
 14.418 -16.702  -0.027  -0.027  -0.027   0.086   0.086   0.086
-16.702  52.819   0.009   0.009   0.009  -0.023  -0.023  -0.023
 -0.027   0.009   3.360   0.001   0.001  -9.837  -0.002  -0.002
 -0.027   0.009   0.001   3.360   0.001  -0.002  -9.837  -0.002
 -0.027   0.009   0.001   0.001   3.360  -0.002  -0.002  -9.837
  0.086  -0.023  -9.837  -0.002  -0.002  31.365   0.006   0.006
  0.086  -0.023  -0.002  -9.837  -0.002   0.006  31.365   0.006
  0.086  -0.023  -0.002  -0.002  -9.837   0.006   0.006  31.365
  0.001   0.000  -0.009  -0.004  -0.009   0.017   0.007   0.017
  0.001   0.000  -0.009  -0.009  -0.004   0.017   0.017   0.007
  0.000   0.000   0.006  -0.012   0.006  -0.011   0.023  -0.011
  0.001   0.000  -0.004  -0.009  -0.009   0.007   0.017   0.017
  0.000   0.000   0.010  -0.000  -0.010  -0.020   0.000   0.020
 -0.007   0.004   0.046   0.017   0.046  -0.125  -0.044  -0.125
 -0.007   0.004   0.046   0.046   0.017  -0.125  -0.125  -0.044
 -0.000   0.000  -0.030   0.061  -0.030   0.081  -0.162   0.081
 -0.007   0.004   0.017   0.046   0.046  -0.044  -0.125  -0.125
 -0.000   0.000  -0.053   0.000   0.053   0.140  -0.000  -0.140
 total augmentation occupancy for first ion, spin component:           1
  1.666   0.041   0.224   0.224   0.224   0.003   0.003   0.003  -0.025  -0.025  -0.000  -0.025  -0.000  -0.000  -0.000   0.000
  0.041   0.001  -0.005  -0.005  -0.005  -0.000  -0.000  -0.000  -0.001  -0.001   0.000  -0.001   0.000  -0.000  -0.000   0.000
  0.224  -0.005   1.187  -0.031  -0.031   0.047  -0.004  -0.004  -0.063  -0.063   0.007   0.140   0.012  -0.000  -0.000   0.000
  0.224  -0.005  -0.031   1.187  -0.031  -0.004   0.047  -0.004   0.140  -0.063  -0.014  -0.063  -0.000   0.000  -0.000  -0.000
  0.224  -0.005  -0.031  -0.031   1.187  -0.004  -0.004   0.047  -0.063   0.140   0.007  -0.063  -0.012  -0.000   0.000   0.000
  0.003  -0.000   0.047  -0.004  -0.004   0.002  -0.000  -0.000  -0.003  -0.003   0.000   0.006   0.001  -0.000  -0.000   0.000
  0.003  -0.000  -0.004   0.047  -0.004  -0.000   0.002  -0.000   0.006  -0.003  -0.001  -0.003  -0.000   0.000  -0.000  -0.000
  0.003  -0.000  -0.004  -0.004   0.047  -0.000  -0.000   0.002  -0.003   0.006   0.000  -0.003  -0.001  -0.000   0.000   0.000
 -0.025  -0.001  -0.063   0.140  -0.063  -0.003   0.006  -0.003   0.025  -0.011  -0.002  -0.011  -0.000   0.000  -0.000   0.000
 -0.025  -0.001  -0.063  -0.063   0.140  -0.003  -0.003   0.006  -0.011   0.025   0.001  -0.011  -0.002  -0.000   0.000  -0.000
 -0.000   0.000   0.007  -0.014   0.007   0.000  -0.001   0.000  -0.002   0.001   0.002   0.001   0.000   0.000  -0.000   0.000
 -0.025  -0.001   0.140  -0.063  -0.063   0.006  -0.003  -0.003  -0.011  -0.011   0.001   0.025   0.002  -0.000  -0.000  -0.000
 -0.000   0.000   0.012  -0.000  -0.012   0.001  -0.000  -0.001  -0.000  -0.002   0.000   0.002   0.002  -0.000   0.000  -0.000
 -0.000  -0.000  -0.000   0.000  -0.000  -0.000   0.000  -0.000   0.000  -0.000   0.000  -0.000  -0.000   0.000  -0.000   0.000
 -0.000  -0.000  -0.000  -0.000   0.000  -0.000  -0.000   0.000  -0.000   0.000  -0.000  -0.000   0.000  -0.000   0.000  -0.000
  0.000   0.000   0.000  -0.000   0.000   0.000  -0.000   0.000   0.000  -0.000   0.000  -0.000  -0.000   0.000  -0.000   0.000
 -0.000  -0.000   0.000  -0.000  -0.000   0.000  -0.000  -0.000  -0.000  -0.000  -0.000   0.000  -0.000  -0.000  -0.000  -0.000
  0.000   0.000   0.000  -0.000  -0.000   0.000  -0.000  -0.000  -0.000   0.000  -0.000  -0.000   0.000  -0.000   0.000  -0.000


------------------------ aborting loop because EDIFF is reached ----------------------------------------


    CHARGE:  cpu time    0.0046: real time    0.0046
    FORLOC:  cpu time    0.0007: real time    0.0007
    FORHF :  cpu time    0.2189: real time    0.2198
    FORNL :  cpu time    0.0346: real time    0.0350
    FORCOR:  cpu time    0.0109: real time    0.0113
    FORHAR:  cpu time    0.0018: real time    0.0022
    MIXING:  cpu time    0.0001: real time    0.0001
    OFIELD:  cpu time    0.0001: real time    0.0002

 VOLUME and BASIS-vectors are now :
 -----------------------------------------------------------------------------
  energy-cutoff  :      400.00
  volume of cell :      327.28
      direct lattice vectors                 reciprocal lattice vectors
     5.469713400  5.469713400  0.000000000     0.091412468  0.091412468 -0.091412468
     0.000000000  5.469713400  5.469713400    -0.091412468  0.091412468  0.091412468
     5.469713400  0.000000000  5.469713400     0.091412468 -0.091412468  0.091412468

  length of vectors
     7.735342873  7.735342873  7.735342873     0.158331039  0.158331039  0.158331039


 FORCES acting on ions
    electron-ion (+dipol)            ewald-force                    non-local-force                 convergence-correction
 -----------------------------------------------------------------------------------------------
   -.131E+02 -.131E+02 -.131E+02   0.189E+02 0.189E+02 0.189E+02   -.597E+01 -.597E+01 -.597E+01   0.944E-04 0.930E-04 0.948E-04
   0.209E+02 0.209E+02 -.210E+02   -.189E+02 -.189E+02 0.189E+02   -.443E+00 -.443E+00 0.134E+01   -.102E-04 -.623E-05 -.236E-04
   -.210E+02 0.209E+02 0.209E+02   0.189E+02 -.189E+02 -.189E+02   0.134E+01 -.443E+00 -.443E+00   -.240E-04 -.653E-05 -.111E-04
   -.185E+01 0.923E+00 -.185E+01   0.122E+01 -.122E+01 0.122E+01   0.411E+00 0.487E+00 0.411E+00   -.217E-04 -.180E-04 -.220E-04
   0.209E+02 -.210E+02 0.209E+02   -.189E+02 0.189E+02 -.189E+02   -.444E+00 0.134E+01 -.444E+00   -.115E-04 -.249E-04 -.121E-04
   0.923E+00 -.185E+01 -.185E+01   -.122E+01 0.122E+01 0.122E+01   0.487E+00 0.411E+00 0.411E+00   -.170E-04 -.214E-04 -.209E-04
   -.185E+01 -.185E+01 0.923E+00   0.122E+01 0.122E+01 -.122E+01   0.411E+00 0.411E+00 0.487E+00   -.207E-04 -.213E-04 -.168E-04
   0.174E+01 0.174E+01 0.174E+01   -.122E+01 -.122E+01 -.122E+01   -.296E+00 -.296E+00 -.296E+00   -.176E-04 -.196E-04 -.173E-04
   0.987E-01 0.989E-01 0.203E+01   0.199E-11 0.201E-11 -.138E+01   -.625E+00 -.625E+00 0.441E+00   0.344E-04 0.338E-04 0.622E-05
   0.203E+01 0.989E-01 0.987E-01   -.138E+01 0.203E-11 0.202E-11   0.441E+00 -.625E+00 -.625E+00   0.609E-05 0.338E-04 0.345E-04
   -.702E+00 -.329E+01 -.702E+00   -.104E-11 0.138E+01 -.106E-11   0.217E+00 0.738E+00 0.217E+00   0.527E-04 -.388E-04 0.525E-04
   0.988E-01 0.203E+01 0.988E-01   0.203E-11 -.138E+01 0.201E-11   -.625E+00 0.441E+00 -.625E+00   0.347E-04 0.667E-05 0.347E-04
   -.329E+01 -.702E+00 -.702E+00   0.138E+01 -.105E-11 -.103E-11   0.738E+00 0.217E+00 0.217E+00   -.384E-04 0.518E-04 0.527E-04
   -.702E+00 -.702E+00 -.329E+01   -.105E-11 -.103E-11 0.138E+01   0.217E+00 0.217E+00 0.738E+00   0.527E-04 0.517E-04 -.381E-04
   0.409E+00 0.409E+00 0.409E+00   0.439E-12 0.470E-12 0.439E-12   -.376E-01 -.376E-01 -.376E-01   -.186E-04 -.177E-04 -.186E-04
 -----------------------------------------------------------------------------------------------
   0.472E+01 0.472E+01 0.472E+01   0.104E-13 0.561E-14 0.102E-13   -.417E+01 -.417E+01 -.417E+01   0.951E-04 0.962E-04 0.948E-04
 
 
 POSITION                                       TOTAL-FORCE (eV/Angst)
 -----------------------------------------------------------------------------------
      0.01500      0.01500      0.01500        -0.650085     -0.650065     -0.650086
      2.71985      2.71985      0.01500         1.273560      1.273371     -0.362601
      0.01500      2.71985      2.71985        -0.362588      1.273371      1.273584
      2.73486      5.46971      2.73486        -0.164492      0.248806     -0.164488
      2.71985      0.01500      2.71985         1.273553     -0.362496      1.273577
      5.46971      2.73486      2.73486         0.248779     -0.164516     -0.164482
      2.73486      2.73486      5.46971        -0.164486     -0.164516      0.248776
      5.46971      5.46971      5.46971         0.177901      0.177918      0.177899
      4.10229      4.10229      1.36973        -0.594823     -0.594740      1.099067
      1.36973      4.10229      4.10229         1.099067     -0.594739     -0.594833
      4.10229      6.83484      4.10229        -0.462349     -0.989866     -0.462361
      4.10229      1.36973      4.10229        -0.594821      1.099057     -0.594833
      6.83484      4.10229      4.10229        -0.989877     -0.462267     -0.462365
      4.10229      4.10229      6.83484        -0.462354     -0.462268     -0.989878
      6.83714      6.83714      6.83714         0.373016      0.372951      0.373024
 -----------------------------------------------------------------------------------
    total drift:                               -0.000048     -0.000052     -0.000048


--------------------------------------------------------------------------------------------------------



  FREE ENERGIE OF THE ION-ELECTRON SYSTEM (eV)
  ---------------------------------------------------
  free  energy   TOTEN  =      -131.32641335 eV

  energy  without entropy=     -131.32641335  energy(sigma->0) =     -131.32641335
 


--------------------------------------------------------------------------------------------------------


    POTLOK:  cpu time    0.0121: real time    0.0122


--------------------------------------------------------------------------------------------------------


 writing wavefunctions
     LOOP+:  cpu time    7.9801: real time    8.0245
    4ORBIT:  cpu time    0.0000: real time    0.0000

 total amount of memory used by VASP MPI-rank0   180730. kBytes
=======================================================================

   base      :      30000. kBytes
   nonl-proj :       1161. kBytes
   fftplans  :        698. kBytes
   grid      :       3210. kBytes
   one-center:        116. kBytes
   HF        :         64. kBytes
   nonlr-proj:       7415. kBytes
   wavefun   :        506. kBytes
   fock_wrk  :     137560. kBytes
 
  
  
 General timing and accounting informations for this job:
 ========================================================
  
                  Total CPU time used (sec):       10.855
                            User time (sec):        7.607
                          System time (sec):        3.248
                         Elapsed time (sec):       11.458
  
                   Maximum memory used (kb):     1557092.
                   Average memory used (kb):          N/A
  
                          Minor page faults:       378090
                          Major page faults:            0
                 Voluntary context switches:         1675
