 vasp.6.3.0 20Jan22 (build Mar 03 2022 12:53:00) gamma-only                     
  
 executed on             LinuxIFC date 2022.03.17  05:58:59
 running on  384 total cores
 distrk:  each k-point on  384 cores,    1 groups
 distr:  one band on NCORE=   1 cores,  384 groups


--------------------------------------------------------------------------------------------------------


 INCAR:
   ENCUT = 400
   SIGMA = 0.0001
   EDIFF = 1E-6
   LHFCALC = .TRUE.
   AEXX = 1.0
   ISYM = -1
   ALGO = sub
   NELM = 1
   NBANDS = 1054
   NBANDSHIGH = 1054

 POTCAR:    PAW Si_GW 04May2012                   
 -----------------------------------------------------------------------------
|                                                                             |
|           W    W    AA    RRRRR   N    N  II  N    N   GGGG   !!!           |
|           W    W   A  A   R    R  NN   N  II  NN   N  G    G  !!!           |
|           W    W  A    A  R    R  N N  N  II  N N  N  G       !!!           |
|           W WW W  AAAAAA  RRRRR   N  N N  II  N  N N  G  GGG   !            |
|           WW  WW  A    A  R   R   N   NN  II  N   NN  G    G                |
|           W    W  A    A  R    R  N    N  II  N    N   GGGG   !!!           |
|                                                                             |
|     For optimal performance we recommend to set                             |
|       NCORE = 2 up to number-of-cores-per-socket                            |
|     NCORE specifies how many cores store one orbital (NPAR=cpu/NCORE).      |
|     This setting can greatly improve the performance of VASP for DFT.       |
|     The default, NCORE=1 might be grossly inefficient on modern             |
|     multi-core architectures or massively parallel machines. Do your        |
|     own testing! More info at https://www.vasp.at/wiki/index.php/NCORE      |
|     Unfortunately you need to use the default for GW and RPA                |
|     calculations (for HF NCORE is supported but not extensively tested      |
|     yet).                                                                   |
|                                                                             |
 -----------------------------------------------------------------------------

 POTCAR:    PAW Si_GW 04May2012                   
   VRHFIN =Si: s2p2                                                                                 
   LEXCH  = PE                                                                                      
   EATOM  =   103.0669 eV,    7.5752 Ry                                                             
                                                                                                    
   TITEL  = PAW Si_GW 04May2012                                                                     
   LULTRA =        F    use ultrasoft PP ?                                                          
   IUNSCR =        1    unscreen: 0-lin 1-nonlin 2-no                                               
   RPACOR =    1.500    partial core radius                                                         
   POMASS =   28.085; ZVAL   =    4.000    mass and valenz                                          
   RCORE  =    1.900    outmost cutoff radius                                                       
   RWIGS  =    2.480; RWIGS  =    1.312    wigner-seitz radius (au A)                               
   ENMAX  =  245.345; ENMIN  =  184.009 eV                                                          
   ICORE  =        3    local potential                                                             
   LCOR   =        T    correct aug charges                                                         
   LPAW   =        T    paw PP                                                                      
   EAUG   =  412.952                                                                                
   DEXC   =    0.000                                                                                
   RMAX   =    1.950    core radius for proj-oper                                                   
   RAUG   =    1.300    factor for augmentation sphere                                              
   RDEP   =    1.993    radius for radial grids                                                     
   RDEPT  =    2.000    core radius for aug-charge                                                  
                                                                                                    
   Atomic configuration                                                                             
    7 entries                                                                                       
     n  l   j            E        occ.                                                              
     1  0  0.50     -1785.8828   2.0000                                                             
     2  0  0.50      -139.4969   2.0000                                                             
     2  1  1.50       -95.5546   6.0000                                                             
     3  0  0.50       -10.8127   2.0000                                                             
     3  1  0.50        -4.0811   2.0000                                                             
     3  2  1.50        -4.0817   0.0000                                                             
     4  3  2.50        -4.0817   0.0000                                                             
   Description                                                                                      
     l       E           TYP  RCUT    TYP  RCUT                                                     
     0    -10.8127223     23  1.900                                                                 
     0     95.2407820     23  1.900                                                                 
     1     -4.0811372     23  1.900                                                                 
     1     54.4233040     23  1.900                                                                 
     2     -8.1634956     23  1.900                                                                 
     2     81.6349560     23  1.900                                                                 
     3     27.2116520     23  1.900                                                                 
  local pseudopotential read in
  partial core-charges read in
  partial kinetic energy density read in
  kinetic energy density of atom read in
  atomic valenz-charges read in
  non local Contribution for L=           0  read in
    real space projection operators read in
  non local Contribution for L=           0  read in
    real space projection operators read in
  non local Contribution for L=           1  read in
    real space projection operators read in
  non local Contribution for L=           1  read in
    real space projection operators read in
  non local Contribution for L=           2  read in
    real space projection operators read in
  non local Contribution for L=           2  read in
    real space projection operators read in
    PAW grid and wavefunctions read in
 
   number of l-projection  operators is LMAX  =           6
   number of lm-projection operators is LMMAX =          18
 
 -----------------------------------------------------------------------------
|                                                                             |
|               ----> ADVICE to this user running VASP <----                  |
|                                                                             |
|     You have a (more or less) 'large supercell' and for larger cells it     |
|     might be more efficient to use real-space projection operators.         |
|     Therefore, try LREAL= Auto in the INCAR file.                           |
|     Mind: For very accurate calculation, you might also keep the            |
|     reciprocal projection scheme (i.e. LREAL=.FALSE.).                      |
|                                                                             |
 -----------------------------------------------------------------------------

  PAW Si_GW 04May2012                   :
 energy of atom  1       EATOM= -103.0669
 kinetic energy error for atom=    0.0012 (will be added to EATOM!!)
 
 
 POSCAR: cd:
  positions in direct lattice
  velocities in cartesian coordinates
 exchange correlation table for  LEXCH =        8
   RHO(1)=    0.500       N(1)  =     2000
   RHO(2)=  100.500       N(2)  =     4000
 


--------------------------------------------------------------------------------------------------------


 ion  position               nearest neighbor table
   1  0.198  0.892  0.211-   7 2.32   2 2.47   3 2.48   4 2.48  12 2.81  13 2.82  16 2.83
   2  0.198  0.211  0.892-   5 2.32   1 2.47   3 2.48   4 2.48  14 2.81  15 2.82  16 2.83
   3  0.998  0.988  0.988-  11 2.36  12 2.37  14 2.37   2 2.48   1 2.48
   4  0.525  0.988  0.988-  11 2.36  15 2.37  13 2.37   2 2.48   1 2.48
   5  0.994  0.492  0.020-   2 2.32  12 2.36  13 2.36  16 2.36
   6  0.503  0.498  0.996-  12 2.35  13 2.35  11 2.35  17 2.36
   7  0.994  0.020  0.492-   1 2.32  14 2.36  15 2.36  16 2.36
   8  0.503  0.996  0.498-  14 2.35  15 2.35  11 2.35  17 2.36
   9  0.001  0.509  0.509-  17 2.37  14 2.37  12 2.37  16 2.39
  10  0.480  0.509  0.509-  17 2.37  15 2.37  13 2.37  16 2.39
  11  0.624  0.125  0.125-   6 2.35   8 2.35   3 2.36   4 2.36
  12  0.130  0.614  0.135-   6 2.35   5 2.36   9 2.37   3 2.37   1 2.81
  13  0.620  0.614  0.135-   6 2.35   5 2.36  10 2.37   4 2.37   1 2.82
  14  0.130  0.135  0.614-   8 2.35   7 2.36   9 2.37   3 2.37   2 2.81
  15  0.620  0.135  0.614-   8 2.35   7 2.36  10 2.37   4 2.37   2 2.82
  16  0.103  0.647  0.647-   7 2.36   5 2.36   9 2.39  10 2.39   1 2.83   2 2.83
  17  0.628  0.622  0.622-   6 2.36   8 2.36  10 2.37   9 2.37
 

IMPORTANT INFORMATION: All symmetrisations will be switched off!
NOSYMM: (Re-)initialisation of all symmetry stuff for point group C_1.


----------------------------------------------------------------------------------------

                                     Primitive cell                                     

  volume of cell :     327.2832

  direct lattice vectors                    reciprocal lattice vectors
     5.469713400  5.469713400  0.000000000     0.091412468  0.091412468 -0.091412468
     0.000000000  5.469713400  5.469713400    -0.091412468  0.091412468  0.091412468
     5.469713400  0.000000000  5.469713400     0.091412468 -0.091412468  0.091412468

  length of vectors
     7.735342873  7.735342873  7.735342873     0.158331039  0.158331039  0.158331039

  position of ions in fractional coordinates (direct lattice)
     0.198285643  0.891589348  0.210613020
     0.198285643  0.210613020  0.891589348
     0.997890964  0.987789370  0.987789370
     0.525314110  0.987807833  0.987807833
     0.993644526  0.491926461  0.019628202
     0.502719025  0.497636860  0.995727484
     0.993644526  0.019628202  0.491926461
     0.502719025  0.995727484  0.497636860
     0.001405266  0.508714001  0.508714001
     0.480057771  0.508698697  0.508698697
     0.624496803  0.124920229  0.124920229
     0.130456169  0.614161343  0.134590713
     0.619632724  0.614146016  0.134572489
     0.130456169  0.134590713  0.614161343
     0.619632724  0.134572489  0.614146016
     0.102684857  0.646755533  0.646755533
     0.627674055  0.621722401  0.621722401

  ion indices of the primitive-cell ions
   primitive index   ion index
                 1           1
                 2           2
                 3           3
                 4           4
                 5           5
                 6           6
                 7           7
                 8           8
                 9           9
                10          10
                11          11
                12          12
                13          13
                14          14
                15          15
                16          16
                17          17

----------------------------------------------------------------------------------------

 
 
 KPOINTS: Automatic mesh                          

Automatic generation of k-mesh.
 Grid dimensions read from file:
 generate k-points for:    1    1    1

 Generating k-lattice:

  Cartesian coordinates                     Fractional coordinates (reciprocal lattice)
     0.091412468  0.091412468 -0.091412468     1.000000000  0.000000000  0.000000000
    -0.091412468  0.091412468  0.091412468     0.000000000  1.000000000 -0.000000000
     0.091412468 -0.091412468  0.091412468    -0.000000000 -0.000000000  1.000000000

  Length of vectors
     0.158331039  0.158331039  0.158331039

  Shift w.r.t. Gamma in fractional coordinates (k-lattice)
     0.000000000  0.000000000  0.000000000

 
 Subroutine IBZKPT returns following result:
 ===========================================
 
 Found      1 irreducible k-points:
 
 Following reciprocal coordinates:
            Coordinates               Weight
  0.000000  0.000000  0.000000      1.000000
 
 Following cartesian coordinates:
            Coordinates               Weight
  0.000000  0.000000  0.000000      1.000000
 
 WARNING: full set of k-points will be restricted to regular points only.

 
 Subroutine IBZKPT_HF returns following result:
 ==============================================
 
 Found      1 k-points in 1st BZ
 the following      1 k-points will be used (e.g. in the exchange kernel)
 Following reciprocal coordinates:   # in IRBZ
  0.000000  0.000000  0.000000    1.00000000   1 t-inv F
 -----------------------------------------------------------------------------
|                                                                             |
|           W    W    AA    RRRRR   N    N  II  N    N   GGGG   !!!           |
|           W    W   A  A   R    R  NN   N  II  NN   N  G    G  !!!           |
|           W    W  A    A  R    R  N N  N  II  N N  N  G       !!!           |
|           W WW W  AAAAAA  RRRRR   N  N N  II  N  N N  G  GGG   !            |
|           WW  WW  A    A  R   R   N   NN  II  N   NN  G    G                |
|           W    W  A    A  R    R  N    N  II  N    N   GGGG   !!!           |
|                                                                             |
|     The number of bands has been changed from the values supplied in        |
|     the INCAR file. This is a result of running the parallel version.       |
|     The orbitals not found in the WAVECAR file will be initialized with     |
|     random numbers, which is usually adequate. For correlated               |
|     calculations, however, you should redo the groundstate calculation.     |
|     I found NBANDS = 1054. Now, NBANDS = 1152.                              |
|                                                                             |
 -----------------------------------------------------------------------------



--------------------------------------------------------------------------------------------------------




 Dimension of arrays:
   k-points           NKPTS =      1   k-points in BZ     NKDIM =      1   number of bands    NBANDS=   1152
   number of dos      NEDOS =    301   number of ions     NIONS =     17
   non local maximal  LDIM  =      6   non local SUM 2l+1 LMDIM =     18
   total plane-waves  NPLWV =  64000
   max r-space proj   IRMAX =      1   max aug-charges    IRDMAX=   9797
   dimension x,y,z NGX =    40 NGY =   40 NGZ =   40
   dimension x,y,z NGXF=    80 NGYF=   80 NGZF=   80
   support grid    NGXF=    80 NGYF=   80 NGZF=   80
   ions per type =              17
   lowest and highest band optimized NBANDSLOW=      -1 NBANDSHIGH=    1054
   NGX,Y,Z   is equivalent  to a cutoff of   8.60,  8.60,  8.60 a.u.
   NGXF,Y,Z  is equivalent  to a cutoff of  17.19, 17.19, 17.19 a.u.

 SYSTEM =  unknown system                          
 POSCAR =  cd:                                     

 Startparameter for this run:
   NWRITE =      2    write-flag & timer
   PREC   = normal    normal or accurate (medium, high low for compatibility)
   ISTART =      1    job   : 0-new  1-cont  2-samecut
   ICHARG =      0    charge: 1-file 2-atom 10-const
   ISPIN  =      1    spin polarized calculation?
   LNONCOLLINEAR =      F non collinear calculations
   LSORBIT =      F    spin-orbit coupling
   INIWAV =      1    electr: 0-lowe 1-rand  2-diag
   LASPH  =      F    aspherical Exc in radial PAW
 Electronic Relaxation 1
   ENCUT  =  400.0 eV  29.40 Ry    5.42 a.u.  12.61 12.61 12.61*2*pi/ulx,y,z
   ENINI  =  400.0     initial cutoff
   ENAUG  =  413.0 eV  augmentation charge cutoff
   NELM   =      1;   NELMIN=  2; NELMDL=  0     # of ELM steps 
   EDIFF  = 0.1E-05   stopping-criterion for ELM
   LREAL  =      F    real-space projection
   NLSPLINE    = F    spline interpolate recip. space projectors
   LCOMPAT=      F    compatible to vasp.4.4
   GGA_COMPAT  = T    GGA compatible to vasp.4.4-vasp.4.6
   LMAXPAW     = -100 max onsite density
   LMAXMIX     =    2 max onsite mixed and CHGCAR
   VOSKOWN=      0    Vosko Wilk Nusair interpolation
   ROPT   =    0.00000
 Ionic relaxation
   EDIFFG = 0.1E-04   stopping-criterion for IOM
   NSW    =      0    number of steps for IOM
   NBLOCK =      1;   KBLOCK =      1    inner block; outer block 
   IBRION =     -1    ionic relax: 0-MD 1-quasi-New 2-CG
   NFREE  =      0    steps in history (QN), initial steepest desc. (CG)
   ISIF   =      0    stress and relaxation
   IWAVPR =     10    prediction:  0-non 1-charg 2-wave 3-comb
   ISYM   =     -1    0-nonsym 1-usesym 2-fastsym
   LCORR  =      T    Harris-Foulkes like correction to forces

   POTIM  = 0.5000    time-step for ionic-motion
   TEIN   =    0.0    initial temperature
   TEBEG  =    0.0;   TEEND  =   0.0 temperature during run
   SMASS  =  -3.00    Nose mass-parameter (am)
   estimated Nose-frequenzy (Omega)   =  0.10E-29 period in steps = 0.13E+47 mass=  -0.137E-26a.u.
   SCALEE = 1.0000    scale energy and forces
   NPACO  =    256;   APACO  = 10.0  distance and # of slots for P.C.
   PSTRESS=    0.0 pullay stress

  Mass of Ions in am
   POMASS =  28.09
  Ionic Valenz
   ZVAL   =   4.00
  Atomic Wigner-Seitz radii
   RWIGS  =  -1.00
  virtual crystal weights 
   VCA    =   1.00
   NELECT =      68.0000    total number of electrons
   NUPDOWN=      -1.0000    fix difference up-down

 DOS related values:
   EMIN   =  10.00;   EMAX   =-10.00  energy-range for DOS
   EFERMI =   0.00
   ISMEAR =     1;   SIGMA  =   0.00  broadening in eV -4-tet -1-fermi 0-gaus

 Electronic relaxation 2 (details)
   IALGO  =      4    algorithm
   LDIAG  =      T    sub-space diagonalisation (order eigenvalues)
   LSUBROT=      F    optimize rotation matrix (better conditioning)
   TURBO    =      0    0=normal 1=particle mesh
   IRESTART =      0    0=no restart 2=restart with 2 vectors
   NREBOOT  =      0    no. of reboots
   NMIN     =      0    reboot dimension
   EREF     =   0.00    reference energy to select bands
   IMIX   =      1    mixing-type and parameters
     AMIX     =   0.40;   BMIX     =  1.00
     AMIX_MAG =   1.60;   BMIX_MAG =  1.00
     AMIN     =   0.10
     WC   =   100.;   INIMIX=   1;  MIXPRE=   1;  MAXMIX= -45

 Intra band minimization:
   WEIMIN = 0.0000     energy-eigenvalue tresh-hold
   EBREAK =  0.22E-09  absolut break condition
   DEPER  =   0.30     relativ break condition  

   TIME   =   0.40     timestep for ELM

  volume/ion in A,a.u.               =      19.25       129.92
  Fermi-wavevector in a.u.,A,eV,Ry     =   0.969624  1.832323 12.791792  0.940170
  Thomas-Fermi vector in A             =   2.099692
 
 Write flags
   LWAVE        =      T    write WAVECAR
   LDOWNSAMPLE  =      F    k-point downsampling of WAVECAR
   LCHARG       =      T    write CHGCAR
   LVTOT        =      F    write LOCPOT, total local potential
   LVHAR        =      F    write LOCPOT, Hartree potential only
   LELF         =      F    write electronic localiz. function (ELF)
   LORBIT       =      0    0 simple, 1 ext, 2 COOP (PROOUT), +10 PAW based schemes


 Dipole corrections
   LMONO  =      F    monopole corrections only (constant potential shift)
   LDIPOL =      F    correct potential (dipole corrections)
   IDIPOL =      0    1-x, 2-y, 3-z, 4-all directions 
   EPSILON=  1.0000000 bulk dielectric constant

 Exchange correlation treatment:
   GGA     =    --    GGA type
   LEXCH   =     8    internal setting for exchange type
   LIBXC   =     F    Libxc                    
   VOSKOWN =     0    Vosko Wilk Nusair interpolation
   EXXOEP  =     0    0=HF, 1=EXX-LHF (local Hartree Fock) 2=EXX OEP
   LHFCALC =     T    Hartree Fock is set to
   LSYMGRAD=     F    symmetrize gradient (conserves proper symmetry)
   PRECFOCK=normal    Normal, Fast or Accurate (Low or Medium for compatibility)
   LRHFCALC=     F    long range Hartree Fock
   LRSCOR  =     F    long range correlation only (use DFT for short range part)
   LTHOMAS =     F    Thomas Fermi screening in HF
   LMODELHF=     F    short range full HF, long range fraction AEXX
   LFOCKACE=     T    use Adeptively-Compressed-Exchange operator
   ENCUT4O =  -1.0   cutoff for four orbital integrals eV
   LMAXFOCK=     4    L truncation for augmentation on plane wave grid
   LMAXFOCKAE=  -1    L truncation for all-electron charge restoration on plane wave grid
   NMAXFOCKAE=   1    number of basis functions for all-electron charge restoration
   LFOCKAEDFT=     F  apply the AE augmentation even for DFT
   NKREDX  =     1    reduce k-point grid by
   NKREDY  =     1    reduce k-point grid by
   NKREDZ  =     1    reduce k-point grid by
   SHIFTRED=     F    shift reduced grid of Gamma
   HFKIDENT=     F    idential grid for each k-point
   ODDONLY =     F    use only odd q-grid points
   EVENONLY=     F    use only even q-grid points
   HFALPHA =   -1.0000 decay constant for conv. correction
   MCALPHA =    0.0000 extent of test-charge in conv. correction in multipole expansion
   AEXX    =    1.0000 exact exchange contribution
   HFSCREEN=    0.0000 screening length (either q_TF or 0.3 A-1)
   HFSCREENC=   0.0000 screening length for correlation (either q_TF or 0.3 A-1)
   HFRCUT  =    0.0000 spherical cutoff for potential kernel
   ALDAX   =    0.0000 LDA exchange part
   AGGAX   =    0.0000 GGA exchange part
   ALDAC   =    0.0000 LDA correlation
   AGGAC   =    0.0000 GGA correlation
   ENCUTFOCK=  -1.0 apply spherical cutoff to Coloumb kernel
   NBANDSGWLOW=     1    first orbital included in HF term
   NBLOCK_FOCK=    64    blocking factor in FOCK_ACC

 Linear response parameters
   LEPSILON=     F    determine dielectric tensor
   LRPA    =     F    only Hartree local field effects (RPA)
   LNABLA  =     F    use nabla operator in PAW spheres
   LVEL    =     F    velocity operator in full k-point grid
   CSHIFT  =0.1000    complex shift for real part using Kramers Kronig
   OMEGAMAX=  -1.0    maximum frequency
   DEG_THRESHOLD= 0.2000000E-02 threshold for treating states as degnerate
   RTIME   =   -0.100 relaxation time in fs
  (WPLASMAI=    0.000 imaginary part of plasma frequency in eV, 0.658/RTIME)
   DFIELD  = 0.0000000 0.0000000 0.0000000 field for delta impulse in time
 
  Optional k-point grid parameters
   LKPOINTS_OPT  =     F    use optional k-point grid
   KPOINTS_OPT_MODE=     1    mode for optional k-point grid
 
 Orbital magnetization related:
   ORBITALMAG=     F  switch on orbital magnetization
   LCHIMAG   =     F  perturbation theory with respect to B field
   DQ        =  0.001000  dq finite difference perturbation B field
   LLRAUG    =     F  two centre corrections for induced B field



--------------------------------------------------------------------------------------------------------


 Static calculation
 charge density and potential will be updated during run
 non-spin polarized calculation
 Subrot: only subspace diagonalization (rotation)
    band-by band algorithm
 perform sub-space diagonalisation
    before iterative eigenvector-optimisation
 Kerker-like  mixing scheme
 using additional bands         1118
 reciprocal scheme for non local part
 use partial core corrections
 calculate Harris-corrections to forces 
   (improved forces if not selfconsistent)
 use gradient corrections 
 use of overlap-Matrix (Vanderbilt PP)
 Methfessel and Paxton  Order N= 1 SIGMA  =   0.00


--------------------------------------------------------------------------------------------------------


  energy-cutoff  :      400.00
  volume of cell :      327.28
      direct lattice vectors                 reciprocal lattice vectors
     5.469713400  5.469713400  0.000000000     0.091412468  0.091412468 -0.091412468
     0.000000000  5.469713400  5.469713400    -0.091412468  0.091412468  0.091412468
     5.469713400  0.000000000  5.469713400     0.091412468 -0.091412468  0.091412468

  length of vectors
     7.735342873  7.735342873  7.735342873     0.158331039  0.158331039  0.158331039


 
 old parameters found on file WAVECAR:
  energy-cutoff  :      400.00
  volume of cell :      327.28
      direct lattice vectors                 reciprocal lattice vectors
     5.469713400  5.469713400  0.000000000     0.091412468  0.091412468 -0.091412468
     0.000000000  5.469713400  5.469713400    -0.091412468  0.091412468  0.091412468
     5.469713400  0.000000000  5.469713400     0.091412468 -0.091412468  0.091412468

  length of vectors

 
 k-points in units of 2pi/SCALE and weight: Automatic mesh                          
   0.00000000  0.00000000  0.00000000       1.000
 
 k-points in reciprocal lattice and weights: Automatic mesh                          
   0.00000000  0.00000000  0.00000000       1.000
 
 position of ions in fractional coordinates (direct lattice) 
   0.19828564  0.89158935  0.21061302
   0.19828564  0.21061302  0.89158935
   0.99789096  0.98778937  0.98778937
   0.52531411  0.98780783  0.98780783
   0.99364453  0.49192646  0.01962820
   0.50271903  0.49763686  0.99572748
   0.99364453  0.01962820  0.49192646
   0.50271903  0.99572748  0.49763686
   0.00140527  0.50871400  0.50871400
   0.48005777  0.50869870  0.50869870
   0.62449680  0.12492023  0.12492023
   0.13045617  0.61416134  0.13459071
   0.61963272  0.61414602  0.13457249
   0.13045617  0.13459071  0.61416134
   0.61963272  0.13457249  0.61414602
   0.10268486  0.64675553  0.64675553
   0.62767406  0.62172240  0.62172240
 
 position of ions in cartesian coordinates  (Angst):
   2.23655849  5.96130384  6.02873106
   5.96130384  2.23655849  6.02873106
  10.86110233 10.86110233 10.80584951
   8.27634337  8.27634337 10.80605148
   5.54231142  8.12564753  2.79805740
   8.19607295  5.47165999  8.16827497
   8.12564753  5.54231142  2.79805740
   5.47165999  8.19607295  8.16827497
   2.79020619  2.79020619  5.56503957
   5.40821450  5.40821450  5.56487216
   4.09909638  4.09909638  1.36655570
   1.44973048  4.07284438  4.09545916
   4.12528636  6.74841611  4.09527564
   4.07284438  1.44973048  4.09545916
   6.74841611  4.12528636  4.09527564
   4.09922414  4.09922414  7.07513481
   6.83384054  6.83384054  6.80128670
 


--------------------------------------------------------------------------------------------------------


 use serial FFT for orbitals x direction half grid
 k-point   1 :   0.0000 0.0000 0.0000  plane waves:    2981

 maximum and minimum number of plane-waves per node :      2981     2981

 maximum number of plane-waves:      2981
 maximum index in each direction: 
   IXMAX=   12   IYMAX=   12   IZMAX=   12
   IXMIN=    0   IYMIN=  -10   IZMIN=  -10


 serial   3D FFT for wavefunctions
 parallel 3D FFT for charge:
    minimum data exchange during FFTs selected (reduces bandwidth)

 
 Radii for the augmentation spheres in the non-local exchange
 for species   1 augmentation radius   1.405 (default was   1.124)
       energy cutoff for augmentation   1600.0
 Maximum index for augmentation-charges in exchange         2293
  SETUP_FOCK is finished

 total amount of memory used by VASP MPI-rank0    43589. kBytes
=======================================================================

   base      :      30000. kBytes
   nonl-proj :       1277. kBytes
   fftplans  :        558. kBytes
   grid      :       2897. kBytes
   one-center:        132. kBytes
   HF        :         64. kBytes
   nonlr-proj:       8505. kBytes
   wavefun   :        156. kBytes
 
     INWAV:  cpu time      0.4821: real time      0.4837
 charge density for first step will be calculated from the start-wavefunctions


--------------------------------------------------------------------------------------------------------


 Maximum index for augmentation-charges          499 (set IRDMAX)


--------------------------------------------------------------------------------------------------------


 initial charge from wavefunction
    FEWALD:  cpu time      0.0070: real time      0.0070


--------------------------------------- Iteration      1(   1)  ---------------------------------------


    POTLOK:  cpu time      0.2093: real time      0.2102
    SETDIJ:  cpu time      0.0213: real time      0.0215
    EDDIAG:  cpu time     31.0086: real time     31.0937
       DOS:  cpu time      0.0030: real time      0.0031
    --------------------------------------------
      LOOP:  cpu time     31.2421: real time     31.3285

 eigenvalue-minimisations  :     0
 total energy-change (2. order) :-0.1495209E+03  ( 0.0000000E+00)
 number of electron      67.9999999 magnetization 
 augmentation part       -3.7289651 magnetization 

 Free energy of the ion-electron system (eV)
  ---------------------------------------------------
  alpha Z        PSCENC =        53.80049087
  Ewald energy   TEWEN  =     -1963.41543283
  -Hartree energ DENC   =      -148.40134691
  -exchange      EXHF   =       511.90721891
  -V(xc)+E(xc)   XCENC  =         0.00000000
  PAW double counting   =      2271.35587417    -2275.34314178
  entropy T*S    EENTRO =         0.00000000
  eigenvalues    EBANDS =      -198.62313463
  atomic energy  EATOM  =      1599.19861851
  Solvation  Ediel_sol  =         0.00000000
  ---------------------------------------------------
  free energy    TOTEN  =      -149.52085370 eV

  energy without entropy =     -149.52085370  energy(sigma->0) =     -149.52085370
  exchange ACFDT corr.  =     -1464.31432233  see jH, gK, PRB 81, 115126


--------------------------------------------------------------------------------------------------------




 average (electrostatic) potential at core
  the test charge radii are     1.1243
  (the norm of the test charge is              1.0000)
       1 -50.1488       2 -50.1488       3 -50.1176       4 -50.1171       5 -49.4238
       6 -49.6645       7 -49.4238       8 -49.6646       9 -49.5316      10 -49.5330
      11 -49.7348      12 -49.9024      13 -49.9003      14 -49.9024      15 -49.9003
      16 -49.2157      17 -49.5334
 
 
 
 E-fermi :   3.2399     XC(G=0):   0.0000     alpha+bet :-12.0749

 Fermi energy:         3.2399213783

 k-point     1 :       0.0000    0.0000    0.0000
  band No.  band energies     occupation 
      1     -13.3886      2.00000
      2      -9.9877      2.00000
      3      -9.9010      2.00000
      4      -9.7660      2.00000
      5      -9.7204      2.00000
      6      -8.6672      2.00000
      7      -7.8077      2.00000
      8      -7.1671      2.00000
      9      -7.0792      2.00000
     10      -7.0378      2.00000
     11      -6.6380      2.00000
     12      -6.5019      2.00000
     13      -6.0809      2.00000
     14      -5.4018      2.00000
     15      -5.0117      2.00000
     16      -1.2172      2.00000
     17      -0.8023      2.00000
     18      -0.7603      2.00000
     19      -0.6771      2.00000
     20      -0.4151      2.00000
     21      -0.0354      2.00000
     22       0.9258      2.00000
     23       1.0960      2.00000
     24       1.3070      2.00000
     25       1.3725      2.00000
     26       1.4687      2.00000
     27       1.5296      2.00000
     28       1.7549      2.00000
     29       2.0347      2.00000
     30       2.0352      2.00000
     31       2.2691      2.00000
     32       2.8457      2.00000
     33       2.9397      2.00000
     34       3.1738      2.00000
     35      10.0016      0.00000
     36      10.9925      0.00000
     37      11.0592      0.00000
     38      11.5003      0.00000
     39      11.8817      0.00000
     40      12.0719      0.00000
     41      12.0760      0.00000
     42      12.2244      0.00000
     43      12.7309      0.00000
     44      12.8514      0.00000
     45      13.4388      0.00000
     46      13.6933      0.00000
     47      13.7038      0.00000
     48      13.7916      0.00000
     49      14.0590      0.00000
     50      14.1522      0.00000
     51      14.2796      0.00000
     52      14.3006      0.00000
     53      14.7775      0.00000
     54      14.7970      0.00000
     55      15.4637      0.00000
     56      16.5900      0.00000
     57      17.8500      0.00000
     58      18.3125      0.00000
     59      18.6545      0.00000
     60      18.7544      0.00000
     61      19.2716      0.00000
     62      19.5903      0.00000
     63      20.4759      0.00000
     64      21.2790      0.00000
     65      21.6021      0.00000
     66      21.7138      0.00000
     67      21.7780      0.00000
     68      21.8061      0.00000
     69      22.1876      0.00000
     70      22.3521      0.00000
     71      22.4274      0.00000
     72      22.5336      0.00000
     73      22.5865      0.00000
     74      22.7401      0.00000
     75      22.8059      0.00000
     76      22.8287      0.00000
     77      22.8435      0.00000
     78      22.9251      0.00000
     79      23.0076      0.00000
     80      23.0240      0.00000
     81      23.0641      0.00000
     82      23.1039      0.00000
     83      23.1972      0.00000
     84      23.2299      0.00000
     85      23.2384      0.00000
     86      23.3660      0.00000
     87      23.4116      0.00000
     88      23.4214      0.00000
     89      23.4687      0.00000
     90      23.5002      0.00000
     91      23.7047      0.00000
     92      23.7348      0.00000
     93      23.7873      0.00000
     94      24.0392      0.00000
     95      24.0685      0.00000
     96      24.5613      0.00000
     97      24.6353      0.00000
     98      24.6560      0.00000
     99      24.8319      0.00000
    100      24.9085      0.00000
    101      24.9320      0.00000
    102      25.0901      0.00000
    103      25.1427      0.00000
    104      25.1613      0.00000
    105      25.2190      0.00000
    106      25.3808      0.00000
    107      25.4546      0.00000
    108      25.7184      0.00000
    109      25.7557      0.00000
    110      25.7782      0.00000
    111      26.0570      0.00000
    112      26.4595      0.00000
    113      27.2590      0.00000
    114      28.9675      0.00000
    115      29.1618      0.00000
    116      29.5611      0.00000
    117      29.7187      0.00000
    118      30.4554      0.00000
    119      30.7682      0.00000
    120      30.7717      0.00000
    121      31.3362      0.00000
    122      31.4057      0.00000
    123      31.5059      0.00000
    124      31.5202      0.00000
    125      31.7419      0.00000
    126      31.9445      0.00000
    127      32.0519      0.00000
    128      32.1972      0.00000
    129      32.3324      0.00000
    130      32.3936      0.00000
    131      32.5101      0.00000
    132      32.6162      0.00000
    133      32.7130      0.00000
    134      32.8736      0.00000
    135      32.9185      0.00000
    136      32.9481      0.00000
    137      33.1441      0.00000
    138      33.2144      0.00000
    139      33.2627      0.00000
    140      33.3525      0.00000
    141      33.3922      0.00000
    142      33.6214      0.00000
    143      33.7242      0.00000
    144      33.7293      0.00000
    145      33.9285      0.00000
    146      34.1140      0.00000
    147      34.1179      0.00000
    148      34.4270      0.00000
    149      34.6314      0.00000
    150      34.7080      0.00000
    151      34.8318      0.00000
    152      34.9160      0.00000
    153      35.1640      0.00000
    154      35.2583      0.00000
    155      35.5089      0.00000
    156      35.5797      0.00000
    157      35.7108      0.00000
    158      35.9637      0.00000
    159      35.9714      0.00000
    160      35.9925      0.00000
    161      36.1229      0.00000
    162      37.0811      0.00000
    163      37.2560      0.00000
    164      37.4905      0.00000
    165      37.9306      0.00000
    166      38.0313      0.00000
    167      38.6818      0.00000
    168      38.8133      0.00000
    169      38.8848      0.00000
    170      39.1410      0.00000
    171      39.4084      0.00000
    172      39.4375      0.00000
    173      39.5073      0.00000
    174      40.0987      0.00000
    175      40.1477      0.00000
    176      40.2122      0.00000
    177      40.3106      0.00000
    178      40.4279      0.00000
    179      40.5029      0.00000
    180      40.5034      0.00000
    181      40.5344      0.00000
    182      40.5874      0.00000
    183      40.5930      0.00000
    184      40.6573      0.00000
    185      40.7775      0.00000
    186      40.8222      0.00000
    187      41.2268      0.00000
    188      41.2832      0.00000
    189      41.3745      0.00000
    190      41.6053      0.00000
    191      41.6062      0.00000
    192      41.8314      0.00000
    193      41.8887      0.00000
    194      41.9244      0.00000
    195      41.9260      0.00000
    196      42.2316      0.00000
    197      42.3228      0.00000
    198      42.4328      0.00000
    199      42.4983      0.00000
    200      42.8409      0.00000
    201      42.9581      0.00000
    202      43.0489      0.00000
    203      43.1126      0.00000
    204      43.6998      0.00000
    205      43.7639      0.00000
    206      43.9862      0.00000
    207      44.1261      0.00000
    208      44.2330      0.00000
    209      44.4273      0.00000
    210      44.5058      0.00000
    211      44.6870      0.00000
    212      44.8107      0.00000
    213      44.9995      0.00000
    214      45.0244      0.00000
    215      45.2364      0.00000
    216      45.4793      0.00000
    217      45.6395      0.00000
    218      45.6523      0.00000
    219      45.9657      0.00000
    220      46.0437      0.00000
    221      46.4301      0.00000
    222      46.9839      0.00000
    223      47.0290      0.00000
    224      47.1308      0.00000
    225      47.2505      0.00000
    226      47.2583      0.00000
    227      47.2649      0.00000
    228      47.5713      0.00000
    229      47.5775      0.00000
    230      47.5996      0.00000
    231      47.7186      0.00000
    232      47.8655      0.00000
    233      47.9358      0.00000
    234      47.9609      0.00000
    235      47.9730      0.00000
    236      48.2799      0.00000
    237      48.2820      0.00000
    238      48.2885      0.00000
    239      48.5951      0.00000
    240      48.6753      0.00000
    241      48.6871      0.00000
    242      48.7678      0.00000
    243      48.9889      0.00000
    244      49.0622      0.00000
    245      49.0943      0.00000
    246      49.5611      0.00000
    247      49.6080      0.00000
    248      49.6140      0.00000
    249      49.7125      0.00000
    250      49.9046      0.00000
    251      50.6024      0.00000
    252      50.7293      0.00000
    253      50.9582      0.00000
    254      50.9601      0.00000
    255      51.0424      0.00000
    256      51.1424      0.00000
    257      51.2416      0.00000
    258      51.3649      0.00000
    259      51.4370      0.00000
    260      51.4543      0.00000
    261      51.5462      0.00000
    262      51.6004      0.00000
    263      51.8205      0.00000
    264      51.8763      0.00000
    265      51.9938      0.00000
    266      52.3212      0.00000
    267      52.5447      0.00000
    268      52.6973      0.00000
    269      52.9657      0.00000
    270      53.0611      0.00000
    271      53.2693      0.00000
    272      53.4971      0.00000
    273      53.7645      0.00000
    274      53.8538      0.00000
    275      54.2532      0.00000
    276      54.3699      0.00000
    277      54.4669      0.00000
    278      54.6028      0.00000
    279      55.1424      0.00000
    280      55.1929      0.00000
    281      55.2137      0.00000
    282      55.3715      0.00000
    283      55.4205      0.00000
    284      55.5919      0.00000
    285      55.7422      0.00000
    286      56.0406      0.00000
    287      56.0872      0.00000
    288      56.1226      0.00000
    289      56.2688      0.00000
    290      56.4906      0.00000
    291      56.5563      0.00000
    292      56.5899      0.00000
    293      56.7724      0.00000
    294      56.7933      0.00000
    295      56.8002      0.00000
    296      56.9809      0.00000
    297      57.1406      0.00000
    298      57.1528      0.00000
    299      57.4184      0.00000
    300      57.4478      0.00000
    301      57.5524      0.00000
    302      57.5882      0.00000
    303      57.6574      0.00000
    304      57.7898      0.00000
    305      57.8276      0.00000
    306      57.9541      0.00000
    307      58.0956      0.00000
    308      58.1358      0.00000
    309      58.1838      0.00000
    310      58.3054      0.00000
    311      58.3336      0.00000
    312      58.3983      0.00000
    313      58.6697      0.00000
    314      58.8173      0.00000
    315      58.8756      0.00000
    316      58.9307      0.00000
    317      59.0123      0.00000
    318      59.0435      0.00000
    319      59.3823      0.00000
    320      59.4173      0.00000
    321      59.4272      0.00000
    322      59.4918      0.00000
    323      59.8044      0.00000
    324      59.9393      0.00000
    325      59.9593      0.00000
    326      60.4181      0.00000
    327      60.4480      0.00000
    328      60.7307      0.00000
    329      60.8222      0.00000
    330      61.5385      0.00000
    331      61.8131      0.00000
    332      61.9026      0.00000
    333      62.0505      0.00000
    334      62.1345      0.00000
    335      62.5129      0.00000
    336      62.8573      0.00000
    337      63.1752      0.00000
    338      63.5716      0.00000
    339      63.6470      0.00000
    340      63.6828      0.00000
    341      63.8425      0.00000
    342      63.9008      0.00000
    343      64.2393      0.00000
    344      64.4199      0.00000
    345      64.4640      0.00000
    346      64.5939      0.00000
    347      64.8489      0.00000
    348      64.8511      0.00000
    349      64.8882      0.00000
    350      64.9024      0.00000
    351      65.1843      0.00000
    352      65.3697      0.00000
    353      65.3755      0.00000
    354      65.4198      0.00000
    355      65.6149      0.00000
    356      65.6279      0.00000
    357      65.7478      0.00000
    358      65.7545      0.00000
    359      65.9102      0.00000
    360      65.9282      0.00000
    361      65.9528      0.00000
    362      66.0405      0.00000
    363      66.1395      0.00000
    364      66.3344      0.00000
    365      66.4985      0.00000
    366      66.5649      0.00000
    367      66.7018      0.00000
    368      67.1503      0.00000
    369      67.3233      0.00000
    370      67.3463      0.00000
    371      67.7427      0.00000
    372      67.7692      0.00000
    373      67.8318      0.00000
    374      67.9450      0.00000
    375      68.3514      0.00000
    376      68.4149      0.00000
    377      68.8543      0.00000
    378      69.6470      0.00000
    379      69.8229      0.00000
    380      69.9494      0.00000
    381      70.0412      0.00000
    382      70.1117      0.00000
    383      70.1523      0.00000
    384      70.6547      0.00000
    385      70.7090      0.00000
    386      70.7751      0.00000
    387      70.9592      0.00000
    388      71.1819      0.00000
    389      71.2831      0.00000
    390      71.3498      0.00000
    391      71.3941      0.00000
    392      71.5880      0.00000
    393      71.8453      0.00000
    394      71.9078      0.00000
    395      71.9522      0.00000
    396      72.5681      0.00000
    397      72.6207      0.00000
    398      72.6922      0.00000
    399      72.7125      0.00000
    400      73.0795      0.00000
    401      73.2206      0.00000
    402      73.2756      0.00000
    403      73.3985      0.00000
    404      73.5251      0.00000
    405      73.6029      0.00000
    406      73.7890      0.00000
    407      73.8670      0.00000
    408      73.8974      0.00000
    409      73.9567      0.00000
    410      74.0416      0.00000
    411      74.0921      0.00000
    412      74.3960      0.00000
    413      74.6043      0.00000
    414      74.8419      0.00000
    415      74.9288      0.00000
    416      74.9426      0.00000
    417      75.0254      0.00000
    418      75.0990      0.00000
    419      75.1638      0.00000
    420      75.2310      0.00000
    421      75.2439      0.00000
    422      75.4238      0.00000
    423      75.4543      0.00000
    424      75.6571      0.00000
    425      75.6600      0.00000
    426      75.6834      0.00000
    427      75.7501      0.00000
    428      75.9015      0.00000
    429      76.0277      0.00000
    430      76.0749      0.00000
    431      76.1194      0.00000
    432      76.1443      0.00000
    433      76.1544      0.00000
    434      76.2107      0.00000
    435      76.2501      0.00000
    436      76.4103      0.00000
    437      76.4147      0.00000
    438      76.6411      0.00000
    439      76.7559      0.00000
    440      76.7711      0.00000
    441      76.9174      0.00000
    442      77.0026      0.00000
    443      77.0885      0.00000
    444      77.1899      0.00000
    445      77.2485      0.00000
    446      77.4391      0.00000
    447      77.4421      0.00000
    448      77.6889      0.00000
    449      77.7614      0.00000
    450      77.8813      0.00000
    451      77.9866      0.00000
    452      78.1867      0.00000
    453      78.2680      0.00000
    454      78.3154      0.00000
    455      78.3663      0.00000
    456      78.4498      0.00000
    457      78.6821      0.00000
    458      78.7085      0.00000
    459      78.9211      0.00000
    460      79.3030      0.00000
    461      79.3408      0.00000
    462      79.3560      0.00000
    463      79.4171      0.00000
    464      79.4583      0.00000
    465      79.5222      0.00000
    466      79.6250      0.00000
    467      79.6848      0.00000
    468      79.9867      0.00000
    469      80.1845      0.00000
    470      80.2927      0.00000
    471      80.3154      0.00000
    472      80.4501      0.00000
    473      80.5830      0.00000
    474      80.7031      0.00000
    475      80.9348      0.00000
    476      81.0212      0.00000
    477      81.0868      0.00000
    478      81.2385      0.00000
    479      81.5441      0.00000
    480      81.6144      0.00000
    481      81.8772      0.00000
    482      81.9933      0.00000
    483      82.3220      0.00000
    484      82.4018      0.00000
    485      82.4533      0.00000
    486      82.6195      0.00000
    487      82.6650      0.00000
    488      82.7025      0.00000
    489      82.7153      0.00000
    490      83.0733      0.00000
    491      83.3235      0.00000
    492      83.3347      0.00000
    493      83.5787      0.00000
    494      83.6432      0.00000
    495      83.9621      0.00000
    496      83.9941      0.00000
    497      84.0215      0.00000
    498      84.2126      0.00000
    499      84.2425      0.00000
    500      84.4639      0.00000
    501      84.5891      0.00000
    502      84.7887      0.00000
    503      84.9100      0.00000
    504      84.9690      0.00000
    505      85.1735      0.00000
    506      85.2988      0.00000
    507      85.4822      0.00000
    508      85.9716      0.00000
    509      86.1732      0.00000
    510      86.2609      0.00000
    511      86.4201      0.00000
    512      86.5115      0.00000
    513      86.7485      0.00000
    514      86.7761      0.00000
    515      86.8464      0.00000
    516      86.8880      0.00000
    517      87.1205      0.00000
    518      87.1443      0.00000
    519      87.5832      0.00000
    520      87.6056      0.00000
    521      87.6854      0.00000
    522      88.0498      0.00000
    523      88.1251      0.00000
    524      88.4845      0.00000
    525      88.7539      0.00000
    526      88.8721      0.00000
    527      88.9530      0.00000
    528      89.0344      0.00000
    529      89.3503      0.00000
    530      89.4921      0.00000
    531      89.5440      0.00000
    532      90.0025      0.00000
    533      90.0723      0.00000
    534      90.1231      0.00000
    535      90.2211      0.00000
    536      90.3296      0.00000
    537      90.3866      0.00000
    538      90.6338      0.00000
    539      90.8066      0.00000
    540      90.8311      0.00000
    541      90.9844      0.00000
    542      91.1091      0.00000
    543      91.1168      0.00000
    544      91.2028      0.00000
    545      91.2183      0.00000
    546      91.3656      0.00000
    547      91.7100      0.00000
    548      91.7114      0.00000
    549      91.8124      0.00000
    550      91.8629      0.00000
    551      91.9672      0.00000
    552      91.9830      0.00000
    553      92.0213      0.00000
    554      92.2630      0.00000
    555      92.2671      0.00000
    556      92.2834      0.00000
    557      92.4549      0.00000
    558      92.4928      0.00000
    559      92.6371      0.00000
    560      92.8403      0.00000
    561      92.8863      0.00000
    562      92.9524      0.00000
    563      92.9713      0.00000
    564      93.0327      0.00000
    565      93.2660      0.00000
    566      93.4473      0.00000
    567      93.4499      0.00000
    568      93.7135      0.00000
    569      93.7350      0.00000
    570      93.7822      0.00000
    571      93.7998      0.00000
    572      93.9585      0.00000
    573      93.9662      0.00000
    574      94.0273      0.00000
    575      94.2921      0.00000
    576      94.3085      0.00000
    577      94.3660      0.00000
    578      94.4536      0.00000
    579      94.5196      0.00000
    580      94.7205      0.00000
    581      94.7523      0.00000
    582      94.7672      0.00000
    583      94.8145      0.00000
    584      94.8960      0.00000
    585      95.1364      0.00000
    586      95.1506      0.00000
    587      95.1852      0.00000
    588      95.3654      0.00000
    589      95.4231      0.00000
    590      95.5128      0.00000
    591      95.6324      0.00000
    592      95.6793      0.00000
    593      95.7250      0.00000
    594      95.7666      0.00000
    595      95.7779      0.00000
    596      96.0033      0.00000
    597      96.0214      0.00000
    598      96.0493      0.00000
    599      96.3219      0.00000
    600      96.4631      0.00000
    601      96.5313      0.00000
    602      96.5551      0.00000
    603      96.7203      0.00000
    604      96.8353      0.00000
    605      97.0352      0.00000
    606      97.1320      0.00000
    607      97.1973      0.00000
    608      97.4603      0.00000
    609      97.4756      0.00000
    610      97.4952      0.00000
    611      98.1216      0.00000
    612      98.2486      0.00000
    613      98.3449      0.00000
    614      98.4499      0.00000
    615      98.7739      0.00000
    616      98.9745      0.00000
    617      98.9949      0.00000
    618      99.0376      0.00000
    619      99.1641      0.00000
    620      99.4011      0.00000
    621      99.6279      0.00000
    622      99.6610      0.00000
    623      99.7858      0.00000
    624      99.8254      0.00000
    625      99.9028      0.00000
    626     100.0378      0.00000
    627     100.1740      0.00000
    628     100.2499      0.00000
    629     100.3351      0.00000
    630     100.6843      0.00000
    631     100.7193      0.00000
    632     100.7415      0.00000
    633     100.8222      0.00000
    634     100.9954      0.00000
    635     101.3329      0.00000
    636     101.3730      0.00000
    637     101.4492      0.00000
    638     101.4885      0.00000
    639     101.7771      0.00000
    640     101.9660      0.00000
    641     102.5555      0.00000
    642     102.7148      0.00000
    643     102.8494      0.00000
    644     102.8503      0.00000
    645     102.9007      0.00000
    646     102.9189      0.00000
    647     102.9817      0.00000
    648     103.0259      0.00000
    649     103.2387      0.00000
    650     103.5995      0.00000
    651     103.6677      0.00000
    652     103.7328      0.00000
    653     103.9494      0.00000
    654     104.1199      0.00000
    655     104.1687      0.00000
    656     104.2001      0.00000
    657     104.3306      0.00000
    658     104.4408      0.00000
    659     104.5637      0.00000
    660     104.8968      0.00000
    661     105.1265      0.00000
    662     105.1510      0.00000
    663     105.5164      0.00000
    664     105.5419      0.00000
    665     105.5886      0.00000
    666     105.6304      0.00000
    667     105.7747      0.00000
    668     105.9316      0.00000
    669     105.9333      0.00000
    670     105.9842      0.00000
    671     106.0224      0.00000
    672     106.2157      0.00000
    673     106.2483      0.00000
    674     106.2616      0.00000
    675     106.4020      0.00000
    676     106.5002      0.00000
    677     106.5877      0.00000
    678     106.9272      0.00000
    679     107.1572      0.00000
    680     107.4546      0.00000
    681     107.5689      0.00000
    682     107.5995      0.00000
    683     107.6133      0.00000
    684     107.7138      0.00000
    685     107.7295      0.00000
    686     107.7723      0.00000
    687     107.8132      0.00000
    688     108.2183      0.00000
    689     108.4264      0.00000
    690     108.4935      0.00000
    691     108.5243      0.00000
    692     108.7546      0.00000
    693     108.8043      0.00000
    694     108.8638      0.00000
    695     108.8779      0.00000
    696     108.9872      0.00000
    697     109.4243      0.00000
    698     109.4331      0.00000
    699     109.7491      0.00000
    700     109.8234      0.00000
    701     110.1394      0.00000
    702     110.2424      0.00000
    703     110.3012      0.00000
    704     110.3750      0.00000
    705     110.5260      0.00000
    706     110.6395      0.00000
    707     110.8071      0.00000
    708     110.9491      0.00000
    709     111.0856      0.00000
    710     111.1377      0.00000
    711     111.2903      0.00000
    712     111.5360      0.00000
    713     111.5774      0.00000
    714     111.6656      0.00000
    715     111.9715      0.00000
    716     112.0368      0.00000
    717     112.2251      0.00000
    718     112.3585      0.00000
    719     112.5123      0.00000
    720     112.5693      0.00000
    721     112.7067      0.00000
    722     112.8287      0.00000
    723     112.9159      0.00000
    724     112.9718      0.00000
    725     113.0802      0.00000
    726     113.0963      0.00000
    727     113.2804      0.00000
    728     113.6297      0.00000
    729     113.6753      0.00000
    730     113.7843      0.00000
    731     113.9456      0.00000
    732     113.9683      0.00000
    733     114.0347      0.00000
    734     114.1388      0.00000
    735     114.2111      0.00000
    736     114.2368      0.00000
    737     114.2713      0.00000
    738     114.4694      0.00000
    739     114.7097      0.00000
    740     114.7617      0.00000
    741     114.7760      0.00000
    742     114.8006      0.00000
    743     114.8579      0.00000
    744     115.0566      0.00000
    745     115.2196      0.00000
    746     115.4340      0.00000
    747     115.4428      0.00000
    748     115.5994      0.00000
    749     115.6176      0.00000
    750     115.8276      0.00000
    751     116.0391      0.00000
    752     116.1926      0.00000
    753     116.2593      0.00000
    754     116.2824      0.00000
    755     116.3693      0.00000
    756     116.4991      0.00000
    757     116.5578      0.00000
    758     116.5689      0.00000
    759     116.7722      0.00000
    760     116.7919      0.00000
    761     117.1264      0.00000
    762     117.1563      0.00000
    763     117.3215      0.00000
    764     117.3470      0.00000
    765     117.4459      0.00000
    766     117.4585      0.00000
    767     117.7522      0.00000
    768     117.7561      0.00000
    769     117.7787      0.00000
    770     117.9787      0.00000
    771     118.0337      0.00000
    772     118.0844      0.00000
    773     118.1379      0.00000
    774     118.1723      0.00000
    775     118.1975      0.00000
    776     118.3906      0.00000
    777     118.4889      0.00000
    778     118.6133      0.00000
    779     118.6346      0.00000
    780     118.6827      0.00000
    781     118.7975      0.00000
    782     118.8766      0.00000
    783     119.0081      0.00000
    784     119.2544      0.00000
    785     119.3374      0.00000
    786     119.3923      0.00000
    787     119.5878      0.00000
    788     119.6084      0.00000
    789     119.7010      0.00000
    790     119.8030      0.00000
    791     119.8328      0.00000
    792     119.9106      0.00000
    793     120.0044      0.00000
    794     120.0201      0.00000
    795     120.2875      0.00000
    796     120.2881      0.00000
    797     120.3467      0.00000
    798     120.4175      0.00000
    799     120.5190      0.00000
    800     120.5328      0.00000
    801     120.7505      0.00000
    802     120.9876      0.00000
    803     121.1121      0.00000
    804     121.1134      0.00000
    805     121.3509      0.00000
    806     121.3695      0.00000
    807     121.5077      0.00000
    808     121.5815      0.00000
    809     121.7409      0.00000
    810     121.7595      0.00000
    811     121.8151      0.00000
    812     122.0923      0.00000
    813     122.3248      0.00000
    814     122.4518      0.00000
    815     122.4865      0.00000
    816     122.5299      0.00000
    817     122.6932      0.00000
    818     122.7072      0.00000
    819     123.0417      0.00000
    820     123.1453      0.00000
    821     123.6156      0.00000
    822     123.6562      0.00000
    823     123.6889      0.00000
    824     123.9881      0.00000
    825     124.1504      0.00000
    826     124.4391      0.00000
    827     124.7104      0.00000
    828     124.8100      0.00000
    829     124.9837      0.00000
    830     125.2070      0.00000
    831     125.3105      0.00000
    832     125.3559      0.00000
    833     125.3751      0.00000
    834     125.6865      0.00000
    835     126.1404      0.00000
    836     126.1618      0.00000
    837     126.2393      0.00000
    838     126.3586      0.00000
    839     126.4818      0.00000
    840     126.6741      0.00000
    841     126.7600      0.00000
    842     126.9510      0.00000
    843     127.2935      0.00000
    844     127.4034      0.00000
    845     127.4847      0.00000
    846     127.5622      0.00000
    847     127.9226      0.00000
    848     128.0831      0.00000
    849     128.0915      0.00000
    850     128.1780      0.00000
    851     128.2058      0.00000
    852     128.6452      0.00000
    853     128.7142      0.00000
    854     128.7161      0.00000
    855     128.8033      0.00000
    856     128.8445      0.00000
    857     128.9328      0.00000
    858     129.3611      0.00000
    859     129.4272      0.00000
    860     129.7230      0.00000
    861     129.7352      0.00000
    862     129.9224      0.00000
    863     130.0375      0.00000
    864     130.1445      0.00000
    865     130.1994      0.00000
    866     130.2776      0.00000
    867     130.3500      0.00000
    868     130.4247      0.00000
    869     130.4926      0.00000
    870     130.6132      0.00000
    871     130.6315      0.00000
    872     130.7285      0.00000
    873     130.8174      0.00000
    874     130.8435      0.00000
    875     130.9796      0.00000
    876     131.0928      0.00000
    877     131.1543      0.00000
    878     131.1972      0.00000
    879     131.2706      0.00000
    880     131.3145      0.00000
    881     131.3368      0.00000
    882     131.5570      0.00000
    883     131.6413      0.00000
    884     131.7582      0.00000
    885     132.0255      0.00000
    886     132.0890      0.00000
    887     132.2407      0.00000
    888     132.2581      0.00000
    889     132.5277      0.00000
    890     132.5465      0.00000
    891     132.8114      0.00000
    892     132.9829      0.00000
    893     132.9919      0.00000
    894     133.1334      0.00000
    895     133.1910      0.00000
    896     133.4961      0.00000
    897     133.7394      0.00000
    898     133.7605      0.00000
    899     133.7933      0.00000
    900     134.0586      0.00000
    901     134.2082      0.00000
    902     134.3095      0.00000
    903     134.3526      0.00000
    904     134.5588      0.00000
    905     134.5744      0.00000
    906     134.6063      0.00000
    907     134.8464      0.00000
    908     135.0106      0.00000
    909     135.1370      0.00000
    910     135.2291      0.00000
    911     135.3547      0.00000
    912     135.4877      0.00000
    913     135.5787      0.00000
    914     135.6129      0.00000
    915     135.9587      0.00000
    916     136.0532      0.00000
    917     136.2586      0.00000
    918     136.2910      0.00000
    919     136.5088      0.00000
    920     136.5565      0.00000
    921     136.7848      0.00000
    922     137.0439      0.00000
    923     137.2092      0.00000
    924     137.2712      0.00000
    925     137.3021      0.00000
    926     137.3753      0.00000
    927     137.4061      0.00000
    928     137.6360      0.00000
    929     137.8224      0.00000
    930     137.9150      0.00000
    931     138.0120      0.00000
    932     138.1277      0.00000
    933     138.3123      0.00000
    934     138.3839      0.00000
    935     138.5264      0.00000
    936     138.7420      0.00000
    937     138.7884      0.00000
    938     139.1086      0.00000
    939     139.3699      0.00000
    940     139.3923      0.00000
    941     139.6571      0.00000
    942     139.7661      0.00000
    943     139.9658      0.00000
    944     140.1967      0.00000
    945     140.2113      0.00000
    946     140.3425      0.00000
    947     140.4114      0.00000
    948     140.7055      0.00000
    949     140.7351      0.00000
    950     140.8095      0.00000
    951     141.1024      0.00000
    952     141.1655      0.00000
    953     141.1791      0.00000
    954     141.2102      0.00000
    955     141.2731      0.00000
    956     141.4353      0.00000
    957     141.6312      0.00000
    958     141.6706      0.00000
    959     141.9508      0.00000
    960     142.0097      0.00000
    961     142.0883      0.00000
    962     142.2679      0.00000
    963     142.3251      0.00000
    964     142.3351      0.00000
    965     142.5731      0.00000
    966     142.8523      0.00000
    967     143.1009      0.00000
    968     143.2041      0.00000
    969     143.4975      0.00000
    970     143.6060      0.00000
    971     143.8645      0.00000
    972     144.0297      0.00000
    973     144.1956      0.00000
    974     144.4398      0.00000
    975     144.4529      0.00000
    976     144.6538      0.00000
    977     144.7148      0.00000
    978     144.8527      0.00000
    979     144.9144      0.00000
    980     145.1149      0.00000
    981     145.3696      0.00000
    982     145.3730      0.00000
    983     145.5637      0.00000
    984     145.7185      0.00000
    985     145.9544      0.00000
    986     145.9968      0.00000
    987     146.3532      0.00000
    988     146.4182      0.00000
    989     147.0366      0.00000
    990     147.1512      0.00000
    991     147.3623      0.00000
    992     147.6183      0.00000
    993     147.8623      0.00000
    994     147.9996      0.00000
    995     148.4111      0.00000
    996     148.5586      0.00000
    997     148.7466      0.00000
    998     148.9751      0.00000
    999     149.0359      0.00000
   1000     149.3566      0.00000
   1001     149.4374      0.00000
   1002     149.5685      0.00000
   1003     149.6065      0.00000
   1004     149.9617      0.00000
   1005     150.4814      0.00000
   1006     150.5828      0.00000
   1007     150.7077      0.00000
   1008     150.7928      0.00000
   1009     151.4596      0.00000
   1010     151.6351      0.00000
   1011     151.7055      0.00000
   1012     151.9453      0.00000
   1013     152.0403      0.00000
   1014     152.2775      0.00000
   1015     152.4529      0.00000
   1016     152.9714      0.00000
   1017     153.0738      0.00000
   1018     153.5954      0.00000
   1019     153.7819      0.00000
   1020     153.8376      0.00000
   1021     153.9656      0.00000
   1022     154.4900      0.00000
   1023     154.6269      0.00000
   1024     154.7680      0.00000
   1025     154.8217      0.00000
   1026     154.8904      0.00000
   1027     155.1715      0.00000
   1028     155.2088      0.00000
   1029     155.9110      0.00000
   1030     156.3422      0.00000
   1031     156.5416      0.00000
   1032     156.7895      0.00000
   1033     157.7476      0.00000
   1034     158.4895      0.00000
   1035     159.0080      0.00000
   1036     159.1051      0.00000
   1037     160.0813      0.00000
   1038     160.1907      0.00000
   1039     160.5023      0.00000
   1040     161.3164      0.00000
   1041     161.7270      0.00000
   1042     162.0588      0.00000
   1043     163.0749      0.00000
   1044     163.6424      0.00000
   1045     164.2488      0.00000
   1046     164.2755      0.00000
   1047     165.2194      0.00000
   1048     166.0606      0.00000
   1049     166.1368      0.00000
   1050     166.3148      0.00000
   1051     166.5115      0.00000
   1052     167.1634      0.00000
   1053     168.3449      0.00000
   1054     169.0083      0.00000
   1055     137.2601      0.00000
   1056     138.4710      0.00000
   1057     138.5051      0.00000
   1058     138.7080      0.00000
   1059     138.8074      0.00000
   1060     139.4169      0.00000
   1061     139.5114      0.00000
   1062     139.5696      0.00000
   1063     139.5929      0.00000
   1064     140.3245      0.00000
   1065     140.3793      0.00000
   1066     140.3839      0.00000
   1067     140.4333      0.00000
   1068     140.4338      0.00000
   1069     140.5615      0.00000
   1070     140.5880      0.00000
   1071     140.6890      0.00000
   1072     140.7408      0.00000
   1073     140.8855      0.00000
   1074     141.1402      0.00000
   1075     141.1945      0.00000
   1076     141.4661      0.00000
   1077     141.5148      0.00000
   1078     141.7512      0.00000
   1079     141.8120      0.00000
   1080     141.8662      0.00000
   1081     141.8997      0.00000
   1082     141.9419      0.00000
   1083     142.0838      0.00000
   1084     142.3414      0.00000
   1085     142.4398      0.00000
   1086     142.5579      0.00000
   1087     142.5723      0.00000
   1088     142.5947      0.00000
   1089     142.6158      0.00000
   1090     142.8453      0.00000
   1091     142.8572      0.00000
   1092     143.0194      0.00000
   1093     143.2193      0.00000
   1094     143.2327      0.00000
   1095     143.2433      0.00000
   1096     143.2657      0.00000
   1097     143.3487      0.00000
   1098     143.4022      0.00000
   1099     143.4174      0.00000
   1100     143.4780      0.00000
   1101     143.4884      0.00000
   1102     143.5462      0.00000
   1103     143.6227      0.00000
   1104     143.6481      0.00000
   1105     143.6966      0.00000
   1106     143.7125      0.00000
   1107     143.9739      0.00000
   1108     143.9795      0.00000
   1109     144.0383      0.00000
   1110     144.1369      0.00000
   1111     144.2119      0.00000
   1112     144.2165      0.00000
   1113     144.2406      0.00000
   1114     144.2813      0.00000
   1115     144.3891      0.00000
   1116     144.4115      0.00000
   1117     144.5945      0.00000
   1118     144.6976      0.00000
   1119     144.7224      0.00000
   1120     144.7616      0.00000
   1121     144.8194      0.00000
   1122     144.9447      0.00000
   1123     145.1406      0.00000
   1124     145.1711      0.00000
   1125     145.3300      0.00000
   1126     145.3828      0.00000
   1127     145.4113      0.00000
   1128     145.6100      0.00000
   1129     145.6758      0.00000
   1130     145.7987      0.00000
   1131     145.8439      0.00000
   1132     146.0158      0.00000
   1133     146.0820      0.00000
   1134     146.0880      0.00000
   1135     146.0890      0.00000
   1136     146.1084      0.00000
   1137     146.1964      0.00000
   1138     146.2860      0.00000
   1139     146.2937      0.00000
   1140     146.8429      0.00000
   1141     146.8896      0.00000
   1142     146.9946      0.00000
   1143     147.0858      0.00000
   1144     147.2751      0.00000
   1145     147.4217      0.00000
   1146     147.6212      0.00000
   1147     147.6874      0.00000
   1148     147.6980      0.00000
   1149     147.8438      0.00000
   1150     147.8884      0.00000
   1151     148.2750      0.00000
   1152     150.0050      0.00000


--------------------------------------------------------------------------------------------------------


 soft charge-density along one line, spin component           1
         0         1         2         3         4         5         6         7         8         9
 total charge-density along one line
 
 pseudopotential strength for first ion, spin component:           1
 14.384 -16.682   0.013   0.010  -0.013  -0.040  -0.031   0.042
-16.682  52.837  -0.005  -0.003   0.005   0.012   0.007  -0.012
  0.013  -0.005   3.361  -0.001   0.004  -9.835   0.003  -0.010
  0.010  -0.003  -0.001   3.343   0.001   0.003  -9.787  -0.001
 -0.013   0.005   0.004   0.001   3.361  -0.010  -0.001  -9.835
 -0.040   0.012  -9.835   0.003  -0.010  31.344  -0.007   0.026
 -0.031   0.007   0.003  -9.787  -0.001  -0.007  31.212   0.003
  0.042  -0.012  -0.010  -0.001  -9.835   0.026   0.003  31.345
  0.005   0.004  -0.005   0.000   0.005   0.010  -0.001  -0.010
 -0.001  -0.001   0.005   0.006   0.000  -0.010  -0.010  -0.001
 -0.016  -0.010  -0.001   0.001   0.001   0.003  -0.001  -0.003
  0.001   0.001   0.000  -0.006   0.005  -0.001   0.011  -0.010
  0.000   0.000  -0.003   0.000  -0.003   0.005  -0.000   0.006
 -0.021   0.007   0.027  -0.002  -0.026  -0.072   0.005   0.069
  0.006  -0.002  -0.026  -0.027  -0.002   0.068   0.072   0.005
  0.071  -0.029   0.008  -0.006  -0.008  -0.022   0.017   0.023
 -0.003   0.000  -0.002   0.029  -0.026   0.005  -0.076   0.068
 -0.001   0.000   0.015  -0.000   0.016  -0.041   0.000  -0.043
 total augmentation occupancy for first ion, spin component:           1
  1.748   0.041  -0.153  -0.078   0.155  -0.002   0.000   0.002   0.017  -0.015   0.043   0.016  -0.000  -0.000  -0.000  -0.000
  0.041   0.001   0.003   0.003  -0.003   0.000   0.000  -0.000  -0.000  -0.001   0.000   0.001   0.000  -0.000  -0.000  -0.000
 -0.153   0.003   0.973   0.016  -0.134   0.044  -0.002  -0.005  -0.020  -0.034  -0.070  -0.037  -0.094  -0.000  -0.000  -0.001
 -0.078   0.003   0.016   1.446  -0.001  -0.002   0.056   0.002   0.008  -0.011   0.152   0.013   0.001  -0.000  -0.000  -0.000
  0.155  -0.003  -0.134  -0.001   0.967  -0.005   0.002   0.043   0.021  -0.037   0.073  -0.035  -0.095   0.000  -0.000   0.001
 -0.002   0.000   0.044  -0.002  -0.005   0.002  -0.000  -0.000  -0.001  -0.002  -0.003  -0.002  -0.004  -0.000  -0.000  -0.000
  0.000   0.000  -0.002   0.056   0.002  -0.000   0.002   0.000  -0.000  -0.001   0.006   0.001   0.000  -0.000  -0.000   0.000
  0.002  -0.000  -0.005   0.002   0.043  -0.000   0.000   0.002   0.001  -0.002   0.003  -0.002  -0.004   0.000  -0.000   0.000
  0.017  -0.000  -0.020   0.008   0.021  -0.001  -0.000   0.001   0.018   0.003   0.010  -0.003   0.000   0.000   0.000   0.000
 -0.015  -0.001  -0.034  -0.011  -0.037  -0.002  -0.001  -0.002   0.003   0.013  -0.000   0.001   0.004   0.000   0.000  -0.000
  0.043   0.000  -0.070   0.152   0.073  -0.003   0.006   0.003   0.010  -0.000   0.038   0.001   0.000   0.000   0.000   0.000
  0.016   0.001  -0.037   0.013  -0.035  -0.002   0.001  -0.002  -0.003   0.001   0.001   0.013   0.004  -0.000  -0.000   0.000
 -0.000   0.000  -0.094   0.001  -0.095  -0.004   0.000  -0.004   0.000   0.004   0.000   0.004   0.037   0.000   0.000   0.000
 -0.000  -0.000  -0.000  -0.000   0.000  -0.000  -0.000   0.000   0.000   0.000   0.000  -0.000   0.000   0.000   0.000   0.000
 -0.000  -0.000  -0.000  -0.000  -0.000  -0.000  -0.000  -0.000   0.000   0.000   0.000  -0.000   0.000   0.000   0.000  -0.000
 -0.000  -0.000  -0.001  -0.000   0.001  -0.000   0.000   0.000   0.000  -0.000   0.000   0.000   0.000   0.000  -0.000   0.000
  0.000   0.000  -0.000   0.000  -0.000  -0.000   0.000  -0.000  -0.000  -0.000  -0.000   0.000   0.000  -0.000  -0.000   0.000
  0.000   0.000  -0.001   0.000  -0.001  -0.000   0.000  -0.000   0.000   0.000   0.000   0.000   0.000   0.000   0.000  -0.000


------------------------ aborting loop because EDIFF is reached ----------------------------------------


    CHARGE:  cpu time      0.0657: real time      0.0659
    FORLOC:  cpu time      0.0070: real time      0.0070
    FORHF :  cpu time      0.3376: real time      0.3391
    FORNL :  cpu time      0.0231: real time      0.0232
    FORCOR:  cpu time      0.2688: real time      0.2697
    FORHAR:  cpu time      0.0567: real time      0.0569
    MIXING:  cpu time      0.0003: real time      0.0003
    OFIELD:  cpu time      0.0001: real time      0.0002

 VOLUME and BASIS-vectors are now :
 -----------------------------------------------------------------------------
  energy-cutoff  :      400.00
  volume of cell :      327.28
      direct lattice vectors                 reciprocal lattice vectors
     5.469713400  5.469713400  0.000000000     0.091412468  0.091412468 -0.091412468
     0.000000000  5.469713400  5.469713400    -0.091412468  0.091412468  0.091412468
     5.469713400  0.000000000  5.469713400     0.091412468 -0.091412468  0.091412468

  length of vectors
     7.735342873  7.735342873  7.735342873     0.158331039  0.158331039  0.158331039


 FORCES acting on ions
    electron-ion (+dipol)            ewald-force                    non-local-force                 convergence-correction
 -----------------------------------------------------------------------------------------------
   -.382E+01 0.393E+01 -.859E+01   0.650E+01 -.649E+01 0.673E+01   -.329E+01 0.322E+01 0.134E+01   -.560E-02 0.865E-03 -.642E-02
   0.393E+01 -.382E+01 -.859E+01   -.649E+01 0.650E+01 0.673E+01   0.322E+01 -.329E+01 0.134E+01   0.818E-03 -.556E-02 -.640E-02
   0.138E+02 0.138E+02 -.392E+01   -.156E+02 -.156E+02 0.167E+01   0.172E+01 0.172E+01 0.188E+01   0.125E-01 0.125E-01 0.880E-02
   -.138E+02 -.138E+02 -.402E+01   0.156E+02 0.156E+02 0.167E+01   -.173E+01 -.173E+01 0.194E+01   -.133E-01 -.132E-01 -.805E-02
   -.114E+02 0.116E+02 -.147E+02   0.109E+02 -.109E+02 0.155E+02   -.208E+00 0.135E+00 -.852E+00   -.364E-02 -.780E-02 -.911E-02
   -.144E+01 0.143E+01 0.965E+01   0.122E+01 -.122E+01 -.997E+01   0.167E+00 -.171E+00 0.578E+00   0.767E-02 0.805E-02 0.114E-01
   0.116E+02 -.114E+02 -.147E+02   -.109E+02 0.109E+02 0.155E+02   0.135E+00 -.208E+00 -.853E+00   -.781E-02 -.362E-02 -.905E-02
   0.143E+01 -.144E+01 0.965E+01   -.122E+01 0.122E+01 -.997E+01   -.171E+00 0.167E+00 0.578E+00   0.804E-02 0.767E-02 0.114E-01
   0.732E+01 0.732E+01 0.110E+01   -.797E+01 -.797E+01 -.121E+01   0.432E+00 0.432E+00 -.876E-03   0.856E-02 0.850E-02 0.681E-02
   -.729E+01 -.729E+01 0.118E+01   0.796E+01 0.796E+01 -.122E+01   -.446E+00 -.446E+00 -.443E-01   -.826E-02 -.832E-02 -.101E-01
   -.228E-01 -.229E-01 -.480E+01   -.121E-02 -.121E-02 0.313E+01   0.164E-01 0.164E-01 0.115E+01   0.529E-02 0.536E-02 0.846E-02
   0.419E+01 0.125E+02 0.982E+01   -.315E+01 -.138E+02 -.984E+01   -.463E+00 0.121E+01 0.442E+00   0.130E-01 0.281E-02 0.986E-02
   -.126E+02 -.407E+01 0.979E+01   0.138E+02 0.316E+01 -.983E+01   -.113E+01 0.372E+00 0.483E+00   -.115E-01 -.379E-02 -.695E-02
   0.125E+02 0.419E+01 0.982E+01   -.138E+02 -.315E+01 -.984E+01   0.121E+01 -.463E+00 0.442E+00   0.280E-02 0.130E-01 0.993E-02
   -.407E+01 -.126E+02 0.979E+01   0.316E+01 0.138E+02 -.983E+01   0.372E+00 -.113E+01 0.483E+00   -.378E-02 -.115E-01 -.687E-02
   -.811E-01 -.811E-01 -.136E+02   0.314E-02 0.314E-02 0.155E+02   0.140E-01 0.140E-01 -.208E+01   -.153E-01 -.153E-01 -.101E-01
   0.214E-02 0.225E-02 0.376E+01   0.104E-01 0.104E-01 -.464E+01   -.167E-01 -.167E-01 0.682E+00   0.105E-01 0.104E-01 0.398E-02
 -----------------------------------------------------------------------------------------------
   0.192E+00 0.192E+00 -.830E+01   0.115E-13 -.219E-13 0.115E-13   -.165E+00 -.165E+00 0.751E+01   0.410E-04 0.424E-04 -.234E-02
 
 
 POSITION                                       TOTAL-FORCE (eV/Angst)
 -----------------------------------------------------------------------------------
      2.23656      5.96130      6.02873        -0.867826      0.911574     -0.607332
      5.96130      2.23656      6.02873         0.911563     -0.867807     -0.607315
     10.86110     10.86110     10.80585         0.091688      0.091713     -0.104031
      8.27634      8.27634     10.80605        -0.089163     -0.089136     -0.151058
      5.54231      8.12565      2.79806        -0.611408      0.649585     -0.097991
      8.19607      5.47166      8.16827        -0.045913      0.048471      0.340665
      8.12565      5.54231      2.79806         0.649553     -0.611410     -0.097984
      5.47166      8.19607      8.16827         0.048473     -0.045935      0.340664
      2.79021      2.79021      5.56504        -0.114927     -0.114949     -0.079957
      5.40821      5.40821      5.56487         0.111652      0.111628     -0.077560
      4.09910      4.09910      1.36656        -0.000384     -0.000363     -0.357667
      1.44973      4.07284      4.09546         0.494302      0.049910      0.503553
      4.12529      6.74842      4.09528        -0.094649     -0.460418      0.507762
      4.07284      1.44973      4.09546         0.049910      0.494299      0.503574
      6.74842      4.12529      4.09528        -0.460430     -0.094653      0.507781
      4.09922      4.09922      7.07513        -0.076303     -0.076335     -0.376833
      6.83384      6.83384      6.80129         0.003862      0.003827     -0.146270
 -----------------------------------------------------------------------------------
    total drift:                                0.005811      0.005803     -0.000127


--------------------------------------------------------------------------------------------------------



  FREE ENERGIE OF THE ION-ELECTRON SYSTEM (eV)
  ---------------------------------------------------
  free  energy   TOTEN  =      -149.52085370 eV

  energy  without entropy=     -149.52085370  energy(sigma->0) =     -149.52085370
 


--------------------------------------------------------------------------------------------------------


    POTLOK:  cpu time      0.2592: real time      0.2600


--------------------------------------------------------------------------------------------------------


 writing wavefunctions
     LOOP+:  cpu time     39.3025: real time     39.4300
    4ORBIT:  cpu time      0.0000: real time      0.0000

 total amount of memory used by VASP MPI-rank0   181345. kBytes
=======================================================================

   base      :      30000. kBytes
   nonl-proj :       1277. kBytes
   fftplans  :        558. kBytes
   grid      :       2897. kBytes
   one-center:        132. kBytes
   HF        :         64. kBytes
   nonlr-proj:       8505. kBytes
   wavefun   :        156. kBytes
   fock_wrk  :     137756. kBytes
 
  
  
 General timing and accounting informations for this job:
 ========================================================
  
                  Total CPU time used (sec):       48.820
                            User time (sec):       29.113
                          System time (sec):       19.707
                         Elapsed time (sec):       49.299
  
                   Maximum memory used (kb):      447656.
                   Average memory used (kb):          N/A
  
                          Minor page faults:       164640
                          Major page faults:            0
                 Voluntary context switches:         1618
