 vasp.6.3.0 20Jan22 (build Mar 03 2022 12:53:00) gamma-only                     
  
 executed on             LinuxIFC date 2022.04.16  03:54:39
 running on  384 total cores
 distrk:  each k-point on  384 cores,    1 groups
 distr:  one band on NCORE=   1 cores,  384 groups


--------------------------------------------------------------------------------------------------------


 INCAR:
   ENCUT = 400
   SIGMA = 0.0001
   EDIFF = 1E-6
   LHFCALC = .TRUE.
   AEXX = 1.0
   ISYM = -1
   ALGO = sub
   NELM = 1
   NBANDS = 1054
   NBANDSHIGH = 1054

 POTCAR:    PAW Si_GW 04May2012                   
 -----------------------------------------------------------------------------
|                                                                             |
|           W    W    AA    RRRRR   N    N  II  N    N   GGGG   !!!           |
|           W    W   A  A   R    R  NN   N  II  NN   N  G    G  !!!           |
|           W    W  A    A  R    R  N N  N  II  N N  N  G       !!!           |
|           W WW W  AAAAAA  RRRRR   N  N N  II  N  N N  G  GGG   !            |
|           WW  WW  A    A  R   R   N   NN  II  N   NN  G    G                |
|           W    W  A    A  R    R  N    N  II  N    N   GGGG   !!!           |
|                                                                             |
|     For optimal performance we recommend to set                             |
|       NCORE = 2 up to number-of-cores-per-socket                            |
|     NCORE specifies how many cores store one orbital (NPAR=cpu/NCORE).      |
|     This setting can greatly improve the performance of VASP for DFT.       |
|     The default, NCORE=1 might be grossly inefficient on modern             |
|     multi-core architectures or massively parallel machines. Do your        |
|     own testing! More info at https://www.vasp.at/wiki/index.php/NCORE      |
|     Unfortunately you need to use the default for GW and RPA                |
|     calculations (for HF NCORE is supported but not extensively tested      |
|     yet).                                                                   |
|                                                                             |
 -----------------------------------------------------------------------------

 POTCAR:    PAW Si_GW 04May2012                   
   VRHFIN =Si: s2p2                                                                                 
   LEXCH  = PE                                                                                      
   EATOM  =   103.0669 eV,    7.5752 Ry                                                             
                                                                                                    
   TITEL  = PAW Si_GW 04May2012                                                                     
   LULTRA =        F    use ultrasoft PP ?                                                          
   IUNSCR =        1    unscreen: 0-lin 1-nonlin 2-no                                               
   RPACOR =    1.500    partial core radius                                                         
   POMASS =   28.085; ZVAL   =    4.000    mass and valenz                                          
   RCORE  =    1.900    outmost cutoff radius                                                       
   RWIGS  =    2.480; RWIGS  =    1.312    wigner-seitz radius (au A)                               
   ENMAX  =  245.345; ENMIN  =  184.009 eV                                                          
   ICORE  =        3    local potential                                                             
   LCOR   =        T    correct aug charges                                                         
   LPAW   =        T    paw PP                                                                      
   EAUG   =  412.952                                                                                
   DEXC   =    0.000                                                                                
   RMAX   =    1.950    core radius for proj-oper                                                   
   RAUG   =    1.300    factor for augmentation sphere                                              
   RDEP   =    1.993    radius for radial grids                                                     
   RDEPT  =    2.000    core radius for aug-charge                                                  
                                                                                                    
   Atomic configuration                                                                             
    7 entries                                                                                       
     n  l   j            E        occ.                                                              
     1  0  0.50     -1785.8828   2.0000                                                             
     2  0  0.50      -139.4969   2.0000                                                             
     2  1  1.50       -95.5546   6.0000                                                             
     3  0  0.50       -10.8127   2.0000                                                             
     3  1  0.50        -4.0811   2.0000                                                             
     3  2  1.50        -4.0817   0.0000                                                             
     4  3  2.50        -4.0817   0.0000                                                             
   Description                                                                                      
     l       E           TYP  RCUT    TYP  RCUT                                                     
     0    -10.8127223     23  1.900                                                                 
     0     95.2407820     23  1.900                                                                 
     1     -4.0811372     23  1.900                                                                 
     1     54.4233040     23  1.900                                                                 
     2     -8.1634956     23  1.900                                                                 
     2     81.6349560     23  1.900                                                                 
     3     27.2116520     23  1.900                                                                 
  local pseudopotential read in
  partial core-charges read in
  partial kinetic energy density read in
  kinetic energy density of atom read in
  atomic valenz-charges read in
  non local Contribution for L=           0  read in
    real space projection operators read in
  non local Contribution for L=           0  read in
    real space projection operators read in
  non local Contribution for L=           1  read in
    real space projection operators read in
  non local Contribution for L=           1  read in
    real space projection operators read in
  non local Contribution for L=           2  read in
    real space projection operators read in
  non local Contribution for L=           2  read in
    real space projection operators read in
    PAW grid and wavefunctions read in
 
   number of l-projection  operators is LMAX  =           6
   number of lm-projection operators is LMMAX =          18
 
 -----------------------------------------------------------------------------
|                                                                             |
|               ----> ADVICE to this user running VASP <----                  |
|                                                                             |
|     You have a (more or less) 'large supercell' and for larger cells it     |
|     might be more efficient to use real-space projection operators.         |
|     Therefore, try LREAL= Auto in the INCAR file.                           |
|     Mind: For very accurate calculation, you might also keep the            |
|     reciprocal projection scheme (i.e. LREAL=.FALSE.).                      |
|                                                                             |
 -----------------------------------------------------------------------------

  PAW Si_GW 04May2012                   :
 energy of atom  1       EATOM= -103.0669
 kinetic energy error for atom=    0.0012 (will be added to EATOM!!)
 
 
 POSCAR: cd:
  positions in direct lattice
  velocities in cartesian coordinates
 exchange correlation table for  LEXCH =        8
   RHO(1)=    0.500       N(1)  =     2000
   RHO(2)=  100.500       N(2)  =     4000
 


--------------------------------------------------------------------------------------------------------


 ion  position               nearest neighbor table
   1  0.250  0.250  0.250-  10 2.42  11 2.42  12 2.42  14 2.42   7 2.76   8 2.76   3 2.76   4 2.76
                             5 2.76   6 2.76
   2  0.000  0.000  0.000-  11 2.32  12 2.32  14 2.32  10 2.32
   3  0.503  0.997  0.997-  13 2.36  15 2.36  10 2.40  11 2.40   1 2.76
   4  0.997  0.503  0.997-  13 2.36  16 2.36  10 2.40  12 2.40   1 2.76
   5  0.503  0.503  0.997-  13 2.36  17 2.36  11 2.40  12 2.40   1 2.76
   6  0.997  0.997  0.503-  15 2.36  16 2.36  10 2.40  14 2.40   1 2.76
   7  0.503  0.997  0.503-  15 2.36  17 2.36  11 2.40  14 2.40   1 2.76
   8  0.997  0.503  0.503-  16 2.36  17 2.36  12 2.40  14 2.40   1 2.76
   9  0.500  0.500  0.500-  13 2.35  15 2.35  16 2.35  17 2.35
  10  0.122  0.122  0.122-   2 2.32   3 2.40   4 2.40   6 2.40   1 2.42
  11  0.633  0.122  0.122-   2 2.32   5 2.40   7 2.40   3 2.40   1 2.42
  12  0.122  0.633  0.122-   2 2.32   5 2.40   8 2.40   4 2.40   1 2.42
  13  0.624  0.624  0.127-   9 2.35   4 2.36   5 2.36   3 2.36
  14  0.122  0.122  0.633-   2 2.32   7 2.40   8 2.40   6 2.40   1 2.42
  15  0.624  0.127  0.624-   9 2.35   6 2.36   7 2.36   3 2.36
  16  0.127  0.624  0.624-   9 2.35   6 2.36   8 2.36   4 2.36
  17  0.624  0.624  0.624-   9 2.35   7 2.36   8 2.36   5 2.36
 

IMPORTANT INFORMATION: All symmetrisations will be switched off!
NOSYMM: (Re-)initialisation of all symmetry stuff for point group C_1.


----------------------------------------------------------------------------------------

                                     Primitive cell                                     

  volume of cell :     327.2832

  direct lattice vectors                    reciprocal lattice vectors
     5.469713400  5.469713400  0.000000000     0.091412468  0.091412468 -0.091412468
     0.000000000  5.469713400  5.469713400    -0.091412468  0.091412468  0.091412468
     5.469713400  0.000000000  5.469713400     0.091412468 -0.091412468  0.091412468

  length of vectors
     7.735342873  7.735342873  7.735342873     0.158331039  0.158331039  0.158331039

  position of ions in fractional coordinates (direct lattice)
     0.250000000  0.250000000  0.250000000
     0.000000000  0.000000000  0.000000000
     0.502557202  0.997442798  0.997442798
     0.997442798  0.502557202  0.997442798
     0.502557202  0.502557202  0.997442798
     0.997442798  0.997442798  0.502557202
     0.502557202  0.997442798  0.502557202
     0.997442798  0.502557202  0.502557202
     0.500000000  0.500000000  0.500000000
     0.122405329  0.122405329  0.122405329
     0.632784013  0.122405329  0.122405329
     0.122405329  0.632784013  0.122405329
     0.624211446  0.624211446  0.127365662
     0.122405329  0.122405329  0.632784013
     0.624211446  0.127365662  0.624211446
     0.127365662  0.624211446  0.624211446
     0.624211446  0.624211446  0.624211446

  ion indices of the primitive-cell ions
   primitive index   ion index
                 1           1
                 2           2
                 3           3
                 4           4
                 5           5
                 6           6
                 7           7
                 8           8
                 9           9
                10          10
                11          11
                12          12
                13          13
                14          14
                15          15
                16          16
                17          17

----------------------------------------------------------------------------------------

 
 
 KPOINTS: Automatic mesh                          

Automatic generation of k-mesh.
 Grid dimensions read from file:
 generate k-points for:    1    1    1

 Generating k-lattice:

  Cartesian coordinates                     Fractional coordinates (reciprocal lattice)
     0.091412468  0.091412468 -0.091412468     1.000000000  0.000000000  0.000000000
    -0.091412468  0.091412468  0.091412468     0.000000000  1.000000000 -0.000000000
     0.091412468 -0.091412468  0.091412468    -0.000000000 -0.000000000  1.000000000

  Length of vectors
     0.158331039  0.158331039  0.158331039

  Shift w.r.t. Gamma in fractional coordinates (k-lattice)
     0.000000000  0.000000000  0.000000000

 
 Subroutine IBZKPT returns following result:
 ===========================================
 
 Found      1 irreducible k-points:
 
 Following reciprocal coordinates:
            Coordinates               Weight
  0.000000  0.000000  0.000000      1.000000
 
 Following cartesian coordinates:
            Coordinates               Weight
  0.000000  0.000000  0.000000      1.000000
 
 WARNING: full set of k-points will be restricted to regular points only.

 
 Subroutine IBZKPT_HF returns following result:
 ==============================================
 
 Found      1 k-points in 1st BZ
 the following      1 k-points will be used (e.g. in the exchange kernel)
 Following reciprocal coordinates:   # in IRBZ
  0.000000  0.000000  0.000000    1.00000000   1 t-inv F
 -----------------------------------------------------------------------------
|                                                                             |
|           W    W    AA    RRRRR   N    N  II  N    N   GGGG   !!!           |
|           W    W   A  A   R    R  NN   N  II  NN   N  G    G  !!!           |
|           W    W  A    A  R    R  N N  N  II  N N  N  G       !!!           |
|           W WW W  AAAAAA  RRRRR   N  N N  II  N  N N  G  GGG   !            |
|           WW  WW  A    A  R   R   N   NN  II  N   NN  G    G                |
|           W    W  A    A  R    R  N    N  II  N    N   GGGG   !!!           |
|                                                                             |
|     The number of bands has been changed from the values supplied in        |
|     the INCAR file. This is a result of running the parallel version.       |
|     The orbitals not found in the WAVECAR file will be initialized with     |
|     random numbers, which is usually adequate. For correlated               |
|     calculations, however, you should redo the groundstate calculation.     |
|     I found NBANDS = 1054. Now, NBANDS = 1152.                              |
|                                                                             |
 -----------------------------------------------------------------------------



--------------------------------------------------------------------------------------------------------




 Dimension of arrays:
   k-points           NKPTS =      1   k-points in BZ     NKDIM =      1   number of bands    NBANDS=   1152
   number of dos      NEDOS =    301   number of ions     NIONS =     17
   non local maximal  LDIM  =      6   non local SUM 2l+1 LMDIM =     18
   total plane-waves  NPLWV =  64000
   max r-space proj   IRMAX =      1   max aug-charges    IRDMAX=   9797
   dimension x,y,z NGX =    40 NGY =   40 NGZ =   40
   dimension x,y,z NGXF=    80 NGYF=   80 NGZF=   80
   support grid    NGXF=    80 NGYF=   80 NGZF=   80
   ions per type =              17
   lowest and highest band optimized NBANDSLOW=      -1 NBANDSHIGH=    1054
   NGX,Y,Z   is equivalent  to a cutoff of   8.60,  8.60,  8.60 a.u.
   NGXF,Y,Z  is equivalent  to a cutoff of  17.19, 17.19, 17.19 a.u.

 SYSTEM =  unknown system                          
 POSCAR =  cd:                                     

 Startparameter for this run:
   NWRITE =      2    write-flag & timer
   PREC   = normal    normal or accurate (medium, high low for compatibility)
   ISTART =      1    job   : 0-new  1-cont  2-samecut
   ICHARG =      0    charge: 1-file 2-atom 10-const
   ISPIN  =      1    spin polarized calculation?
   LNONCOLLINEAR =      F non collinear calculations
   LSORBIT =      F    spin-orbit coupling
   INIWAV =      1    electr: 0-lowe 1-rand  2-diag
   LASPH  =      F    aspherical Exc in radial PAW
 Electronic Relaxation 1
   ENCUT  =  400.0 eV  29.40 Ry    5.42 a.u.  12.61 12.61 12.61*2*pi/ulx,y,z
   ENINI  =  400.0     initial cutoff
   ENAUG  =  413.0 eV  augmentation charge cutoff
   NELM   =      1;   NELMIN=  2; NELMDL=  0     # of ELM steps 
   EDIFF  = 0.1E-05   stopping-criterion for ELM
   LREAL  =      F    real-space projection
   NLSPLINE    = F    spline interpolate recip. space projectors
   LCOMPAT=      F    compatible to vasp.4.4
   GGA_COMPAT  = T    GGA compatible to vasp.4.4-vasp.4.6
   LMAXPAW     = -100 max onsite density
   LMAXMIX     =    2 max onsite mixed and CHGCAR
   VOSKOWN=      0    Vosko Wilk Nusair interpolation
   ROPT   =    0.00000
 Ionic relaxation
   EDIFFG = 0.1E-04   stopping-criterion for IOM
   NSW    =      0    number of steps for IOM
   NBLOCK =      1;   KBLOCK =      1    inner block; outer block 
   IBRION =     -1    ionic relax: 0-MD 1-quasi-New 2-CG
   NFREE  =      0    steps in history (QN), initial steepest desc. (CG)
   ISIF   =      0    stress and relaxation
   IWAVPR =     10    prediction:  0-non 1-charg 2-wave 3-comb
   ISYM   =     -1    0-nonsym 1-usesym 2-fastsym
   LCORR  =      T    Harris-Foulkes like correction to forces

   POTIM  = 0.5000    time-step for ionic-motion
   TEIN   =    0.0    initial temperature
   TEBEG  =    0.0;   TEEND  =   0.0 temperature during run
   SMASS  =  -3.00    Nose mass-parameter (am)
   estimated Nose-frequenzy (Omega)   =  0.10E-29 period in steps = 0.13E+47 mass=  -0.137E-26a.u.
   SCALEE = 1.0000    scale energy and forces
   NPACO  =    256;   APACO  = 10.0  distance and # of slots for P.C.
   PSTRESS=    0.0 pullay stress

  Mass of Ions in am
   POMASS =  28.09
  Ionic Valenz
   ZVAL   =   4.00
  Atomic Wigner-Seitz radii
   RWIGS  =  -1.00
  virtual crystal weights 
   VCA    =   1.00
   NELECT =      68.0000    total number of electrons
   NUPDOWN=      -1.0000    fix difference up-down

 DOS related values:
   EMIN   =  10.00;   EMAX   =-10.00  energy-range for DOS
   EFERMI =   0.00
   ISMEAR =     1;   SIGMA  =   0.00  broadening in eV -4-tet -1-fermi 0-gaus

 Electronic relaxation 2 (details)
   IALGO  =      4    algorithm
   LDIAG  =      T    sub-space diagonalisation (order eigenvalues)
   LSUBROT=      F    optimize rotation matrix (better conditioning)
   TURBO    =      0    0=normal 1=particle mesh
   IRESTART =      0    0=no restart 2=restart with 2 vectors
   NREBOOT  =      0    no. of reboots
   NMIN     =      0    reboot dimension
   EREF     =   0.00    reference energy to select bands
   IMIX   =      1    mixing-type and parameters
     AMIX     =   0.40;   BMIX     =  1.00
     AMIX_MAG =   1.60;   BMIX_MAG =  1.00
     AMIN     =   0.10
     WC   =   100.;   INIMIX=   1;  MIXPRE=   1;  MAXMIX= -45

 Intra band minimization:
   WEIMIN = 0.0000     energy-eigenvalue tresh-hold
   EBREAK =  0.22E-09  absolut break condition
   DEPER  =   0.30     relativ break condition  

   TIME   =   0.40     timestep for ELM

  volume/ion in A,a.u.               =      19.25       129.92
  Fermi-wavevector in a.u.,A,eV,Ry     =   0.969624  1.832323 12.791792  0.940170
  Thomas-Fermi vector in A             =   2.099692
 
 Write flags
   LWAVE        =      T    write WAVECAR
   LDOWNSAMPLE  =      F    k-point downsampling of WAVECAR
   LCHARG       =      T    write CHGCAR
   LVTOT        =      F    write LOCPOT, total local potential
   LVHAR        =      F    write LOCPOT, Hartree potential only
   LELF         =      F    write electronic localiz. function (ELF)
   LORBIT       =      0    0 simple, 1 ext, 2 COOP (PROOUT), +10 PAW based schemes


 Dipole corrections
   LMONO  =      F    monopole corrections only (constant potential shift)
   LDIPOL =      F    correct potential (dipole corrections)
   IDIPOL =      0    1-x, 2-y, 3-z, 4-all directions 
   EPSILON=  1.0000000 bulk dielectric constant

 Exchange correlation treatment:
   GGA     =    --    GGA type
   LEXCH   =     8    internal setting for exchange type
   LIBXC   =     F    Libxc                    
   VOSKOWN =     0    Vosko Wilk Nusair interpolation
   EXXOEP  =     0    0=HF, 1=EXX-LHF (local Hartree Fock) 2=EXX OEP
   LHFCALC =     T    Hartree Fock is set to
   LSYMGRAD=     F    symmetrize gradient (conserves proper symmetry)
   PRECFOCK=normal    Normal, Fast or Accurate (Low or Medium for compatibility)
   LRHFCALC=     F    long range Hartree Fock
   LRSCOR  =     F    long range correlation only (use DFT for short range part)
   LTHOMAS =     F    Thomas Fermi screening in HF
   LMODELHF=     F    short range full HF, long range fraction AEXX
   LFOCKACE=     T    use Adeptively-Compressed-Exchange operator
   ENCUT4O =  -1.0   cutoff for four orbital integrals eV
   LMAXFOCK=     4    L truncation for augmentation on plane wave grid
   LMAXFOCKAE=  -1    L truncation for all-electron charge restoration on plane wave grid
   NMAXFOCKAE=   1    number of basis functions for all-electron charge restoration
   LFOCKAEDFT=     F  apply the AE augmentation even for DFT
   NKREDX  =     1    reduce k-point grid by
   NKREDY  =     1    reduce k-point grid by
   NKREDZ  =     1    reduce k-point grid by
   SHIFTRED=     F    shift reduced grid of Gamma
   HFKIDENT=     F    idential grid for each k-point
   ODDONLY =     F    use only odd q-grid points
   EVENONLY=     F    use only even q-grid points
   HFALPHA =   -1.0000 decay constant for conv. correction
   MCALPHA =    0.0000 extent of test-charge in conv. correction in multipole expansion
   AEXX    =    1.0000 exact exchange contribution
   HFSCREEN=    0.0000 screening length (either q_TF or 0.3 A-1)
   HFSCREENC=   0.0000 screening length for correlation (either q_TF or 0.3 A-1)
   HFRCUT  =    0.0000 spherical cutoff for potential kernel
   ALDAX   =    0.0000 LDA exchange part
   AGGAX   =    0.0000 GGA exchange part
   ALDAC   =    0.0000 LDA correlation
   AGGAC   =    0.0000 GGA correlation
   ENCUTFOCK=  -1.0 apply spherical cutoff to Coloumb kernel
   NBANDSGWLOW=     1    first orbital included in HF term
   NBLOCK_FOCK=    64    blocking factor in FOCK_ACC

 Linear response parameters
   LEPSILON=     F    determine dielectric tensor
   LRPA    =     F    only Hartree local field effects (RPA)
   LNABLA  =     F    use nabla operator in PAW spheres
   LVEL    =     F    velocity operator in full k-point grid
   CSHIFT  =0.1000    complex shift for real part using Kramers Kronig
   OMEGAMAX=  -1.0    maximum frequency
   DEG_THRESHOLD= 0.2000000E-02 threshold for treating states as degnerate
   RTIME   =   -0.100 relaxation time in fs
  (WPLASMAI=    0.000 imaginary part of plasma frequency in eV, 0.658/RTIME)
   DFIELD  = 0.0000000 0.0000000 0.0000000 field for delta impulse in time
 
  Optional k-point grid parameters
   LKPOINTS_OPT  =     F    use optional k-point grid
   KPOINTS_OPT_MODE=     1    mode for optional k-point grid
 
 Orbital magnetization related:
   ORBITALMAG=     F  switch on orbital magnetization
   LCHIMAG   =     F  perturbation theory with respect to B field
   DQ        =  0.001000  dq finite difference perturbation B field
   LLRAUG    =     F  two centre corrections for induced B field



--------------------------------------------------------------------------------------------------------


 Static calculation
 charge density and potential will be updated during run
 non-spin polarized calculation
 Subrot: only subspace diagonalization (rotation)
    band-by band algorithm
 perform sub-space diagonalisation
    before iterative eigenvector-optimisation
 Kerker-like  mixing scheme
 using additional bands         1118
 reciprocal scheme for non local part
 use partial core corrections
 calculate Harris-corrections to forces 
   (improved forces if not selfconsistent)
 use gradient corrections 
 use of overlap-Matrix (Vanderbilt PP)
 Methfessel and Paxton  Order N= 1 SIGMA  =   0.00


--------------------------------------------------------------------------------------------------------


  energy-cutoff  :      400.00
  volume of cell :      327.28
      direct lattice vectors                 reciprocal lattice vectors
     5.469713400  5.469713400  0.000000000     0.091412468  0.091412468 -0.091412468
     0.000000000  5.469713400  5.469713400    -0.091412468  0.091412468  0.091412468
     5.469713400  0.000000000  5.469713400     0.091412468 -0.091412468  0.091412468

  length of vectors
     7.735342873  7.735342873  7.735342873     0.158331039  0.158331039  0.158331039


 
 old parameters found on file WAVECAR:
  energy-cutoff  :      400.00
  volume of cell :      327.28
      direct lattice vectors                 reciprocal lattice vectors
     5.469713400  5.469713400  0.000000000     0.091412468  0.091412468 -0.091412468
     0.000000000  5.469713400  5.469713400    -0.091412468  0.091412468  0.091412468
     5.469713400  0.000000000  5.469713400     0.091412468 -0.091412468  0.091412468

  length of vectors

 
 k-points in units of 2pi/SCALE and weight: Automatic mesh                          
   0.00000000  0.00000000  0.00000000       1.000
 
 k-points in reciprocal lattice and weights: Automatic mesh                          
   0.00000000  0.00000000  0.00000000       1.000
 
 position of ions in fractional coordinates (direct lattice) 
   0.25000000  0.25000000  0.25000000
   0.00000000  0.00000000  0.00000000
   0.50255720  0.99744280  0.99744280
   0.99744280  0.50255720  0.99744280
   0.50255720  0.50255720  0.99744280
   0.99744280  0.99744280  0.50255720
   0.50255720  0.99744280  0.50255720
   0.99744280  0.50255720  0.50255720
   0.50000000  0.50000000  0.50000000
   0.12240533  0.12240533  0.12240533
   0.63278401  0.12240533  0.12240533
   0.12240533  0.63278401  0.12240533
   0.62421145  0.62421145  0.12736566
   0.12240533  0.12240533  0.63278401
   0.62421145  0.12736566  0.62421145
   0.12736566  0.62421145  0.62421145
   0.62421145  0.62421145  0.62421145
 
 position of ions in cartesian coordinates  (Angst):
   2.73485670  2.73485670  2.73485670
   0.00000000  0.00000000  0.00000000
   8.20457010  8.20457010 10.91145248
  10.91145248  8.20457010  8.20457010
   8.20457010  5.49768772  8.20457010
   8.20457010 10.91145248  8.20457010
   5.49768772  8.20457010  8.20457010
   8.20457010  8.20457010  5.49768772
   5.46971340  5.46971340  5.46971340
   1.33904414  1.33904414  1.33904414
   4.13066926  4.13066926  1.33904414
   1.33904414  4.13066926  4.13066926
   4.11091138  6.82851542  4.11091138
   4.13066926  1.33904414  4.13066926
   6.82851542  4.11091138  4.11091138
   4.11091138  4.11091138  6.82851542
   6.82851542  6.82851542  6.82851542
 


--------------------------------------------------------------------------------------------------------


 use serial FFT for orbitals x direction half grid
 k-point   1 :   0.0000 0.0000 0.0000  plane waves:    2981

 maximum and minimum number of plane-waves per node :      2981     2981

 maximum number of plane-waves:      2981
 maximum index in each direction: 
   IXMAX=   12   IYMAX=   12   IZMAX=   12
   IXMIN=    0   IYMIN=  -10   IZMIN=  -10


 serial   3D FFT for wavefunctions
 parallel 3D FFT for charge:
    minimum data exchange during FFTs selected (reduces bandwidth)

 
 Radii for the augmentation spheres in the non-local exchange
 for species   1 augmentation radius   1.405 (default was   1.124)
       energy cutoff for augmentation   1600.0
 Maximum index for augmentation-charges in exchange         2268
  SETUP_FOCK is finished

 total amount of memory used by VASP MPI-rank0    43537. kBytes
=======================================================================

   base      :      30000. kBytes
   nonl-proj :       1277. kBytes
   fftplans  :        558. kBytes
   grid      :       2897. kBytes
   one-center:        132. kBytes
   HF        :         64. kBytes
   nonlr-proj:       8453. kBytes
   wavefun   :        156. kBytes
 
     INWAV:  cpu time      0.5381: real time      0.5398
 charge density for first step will be calculated from the start-wavefunctions


--------------------------------------------------------------------------------------------------------


 Maximum index for augmentation-charges          499 (set IRDMAX)


--------------------------------------------------------------------------------------------------------


 initial charge from wavefunction
    FEWALD:  cpu time      0.0074: real time      0.0074


--------------------------------------- Iteration      1(   1)  ---------------------------------------


    POTLOK:  cpu time      0.2092: real time      0.2102
    SETDIJ:  cpu time      0.0173: real time      0.0176
    EDDIAG:  cpu time     32.0326: real time     32.1129
       DOS:  cpu time      0.0033: real time      0.0034
    --------------------------------------------
      LOOP:  cpu time     32.2624: real time     32.3442

 eigenvalue-minimisations  :     0
 total energy-change (2. order) :-0.1476911E+03  ( 0.0000000E+00)
 number of electron      67.9999988 magnetization 
 augmentation part       -3.6936872 magnetization 

 Free energy of the ion-electron system (eV)
  ---------------------------------------------------
  alpha Z        PSCENC =        53.80049087
  Ewald energy   TEWEN  =     -1952.63207081
  -Hartree energ DENC   =      -155.94552953
  -exchange      EXHF   =       512.57021007
  -V(xc)+E(xc)   XCENC  =         0.00000000
  PAW double counting   =      2278.15897579    -2282.14647298
  entropy T*S    EENTRO =         0.00000000
  eigenvalues    EBANDS =      -200.69529388
  atomic energy  EATOM  =      1599.19861851
  Solvation  Ediel_sol  =         0.00000000
  ---------------------------------------------------
  free energy    TOTEN  =      -147.69107197 eV

  energy without entropy =     -147.69107197  energy(sigma->0) =     -147.69107197
  exchange ACFDT corr.  =     -1466.36043357  see jH, gK, PRB 81, 115126


--------------------------------------------------------------------------------------------------------




 average (electrostatic) potential at core
  the test charge radii are     1.1243
  (the norm of the test charge is              1.0000)
       1 -50.9800       2 -49.6197       3 -49.9744       4 -49.9744       5 -49.7572
       6 -49.9744       7 -49.7572       8 -49.7572       9 -49.5952      10 -49.7271
      11 -49.7681      12 -49.7681      13 -49.6991      14 -49.7681      15 -49.6992
      16 -49.6992      17 -49.1985
 
 
 
 E-fermi :   4.8113     XC(G=0):   0.0000     alpha+bet :-12.0749

 Fermi energy:         4.8113209994

 k-point     1 :       0.0000    0.0000    0.0000
  band No.  band energies     occupation 
      1     -13.6131      2.00000
      2     -10.1735      2.00000
      3      -9.9423      2.00000
      4      -9.8606      2.00000
      5      -9.8606      2.00000
      6      -8.9028      2.00000
      7      -7.2997      2.00000
      8      -7.2695      2.00000
      9      -7.2695      2.00000
     10      -6.9543      2.00000
     11      -6.9543      2.00000
     12      -6.4994      2.00000
     13      -5.5819      2.00000
     14      -5.5179      2.00000
     15      -5.5179      2.00000
     16      -1.3759      2.00000
     17      -1.2769      2.00000
     18      -1.2769      2.00000
     19      -0.2682      2.00000
     20      -0.1833      2.00000
     21      -0.1833      2.00000
     22       0.5566      2.00000
     23       1.2767      2.00000
     24       1.2767      2.00000
     25       1.3293      2.00000
     26       1.4212      2.00000
     27       1.4212      2.00000
     28       1.6546      2.00000
     29       1.6896      2.00000
     30       1.6896      2.00000
     31       2.7497      2.00000
     32       2.8063      2.00000
     33       2.8063      2.00000
     34       4.7565      2.00000
     35      10.6142      0.00000
     36      10.6145      0.00000
     37      11.2260      0.00000
     38      11.2270      0.00000
     39      11.5369      0.00000
     40      11.6284      0.00000
     41      11.6291      0.00000
     42      12.0787      0.00000
     43      12.4604      0.00000
     44      12.6491      0.00000
     45      12.6493      0.00000
     46      13.7770      0.00000
     47      13.7957      0.00000
     48      13.7971      0.00000
     49      14.1046      0.00000
     50      14.1048      0.00000
     51      14.4537      0.00000
     52      14.5117      0.00000
     53      14.5119      0.00000
     54      14.8397      0.00000
     55      16.4747      0.00000
     56      18.2516      0.00000
     57      18.3412      0.00000
     58      18.3536      0.00000
     59      18.7803      0.00000
     60      18.9585      0.00000
     61      18.9593      0.00000
     62      19.8474      0.00000
     63      19.9888      0.00000
     64      19.9905      0.00000
     65      21.6915      0.00000
     66      21.7234      0.00000
     67      21.7289      0.00000
     68      22.6002      0.00000
     69      22.6847      0.00000
     70      22.6858      0.00000
     71      22.7097      0.00000
     72      22.7112      0.00000
     73      22.7428      0.00000
     74      22.7454      0.00000
     75      22.7698      0.00000
     76      22.7724      0.00000
     77      22.9502      0.00000
     78      22.9550      0.00000
     79      22.9699      0.00000
     80      23.0438      0.00000
     81      23.1046      0.00000
     82      23.1096      0.00000
     83      23.1876      0.00000
     84      23.1890      0.00000
     85      23.2031      0.00000
     86      23.2062      0.00000
     87      23.2228      0.00000
     88      23.2272      0.00000
     89      23.3416      0.00000
     90      23.3441      0.00000
     91      23.4030      0.00000
     92      23.5734      0.00000
     93      23.5745      0.00000
     94      23.7350      0.00000
     95      23.7615      0.00000
     96      23.7637      0.00000
     97      24.2765      0.00000
     98      24.2777      0.00000
     99      24.7640      0.00000
    100      24.9954      0.00000
    101      25.0439      0.00000
    102      25.0518      0.00000
    103      25.3177      0.00000
    104      25.4677      0.00000
    105      25.4708      0.00000
    106      25.5761      0.00000
    107      25.6487      0.00000
    108      25.6617      0.00000
    109      25.6653      0.00000
    110      25.8223      0.00000
    111      25.8716      0.00000
    112      25.8729      0.00000
    113      26.3930      0.00000
    114      29.3320      0.00000
    115      29.3396      0.00000
    116      29.3448      0.00000
    117      30.5753      0.00000
    118      30.5825      0.00000
    119      30.5956      0.00000
    120      31.1177      0.00000
    121      31.5356      0.00000
    122      31.5814      0.00000
    123      31.6809      0.00000
    124      31.7045      0.00000
    125      31.8780      0.00000
    126      32.3083      0.00000
    127      32.3189      0.00000
    128      32.3334      0.00000
    129      32.3509      0.00000
    130      32.4405      0.00000
    131      32.5553      0.00000
    132      32.6521      0.00000
    133      32.8919      0.00000
    134      32.9004      0.00000
    135      32.9517      0.00000
    136      32.9615      0.00000
    137      33.0070      0.00000
    138      33.0184      0.00000
    139      33.1187      0.00000
    140      33.1350      0.00000
    141      33.1554      0.00000
    142      33.7801      0.00000
    143      33.7929      0.00000
    144      33.8072      0.00000
    145      34.0560      0.00000
    146      34.2844      0.00000
    147      34.3094      0.00000
    148      34.3351      0.00000
    149      34.6627      0.00000
    150      34.7056      0.00000
    151      34.9703      0.00000
    152      34.9964      0.00000
    153      35.0479      0.00000
    154      35.3542      0.00000
    155      35.3687      0.00000
    156      35.5335      0.00000
    157      35.6067      0.00000
    158      35.6283      0.00000
    159      35.7891      0.00000
    160      35.8185      0.00000
    161      35.8462      0.00000
    162      37.1606      0.00000
    163      37.1833      0.00000
    164      37.1908      0.00000
    165      38.5879      0.00000
    166      38.6601      0.00000
    167      38.7152      0.00000
    168      38.7961      0.00000
    169      39.0061      0.00000
    170      39.0395      0.00000
    171      39.0889      0.00000
    172      39.1650      0.00000
    173      39.1866      0.00000
    174      39.8291      0.00000
    175      39.8598      0.00000
    176      40.2330      0.00000
    177      40.3382      0.00000
    178      40.3571      0.00000
    179      40.4438      0.00000
    180      40.6355      0.00000
    181      40.6410      0.00000
    182      40.6830      0.00000
    183      40.7469      0.00000
    184      40.7621      0.00000
    185      40.8086      0.00000
    186      40.8178      0.00000
    187      40.8437      0.00000
    188      40.8572      0.00000
    189      41.0831      0.00000
    190      41.1358      0.00000
    191      41.2907      0.00000
    192      41.5526      0.00000
    193      41.6246      0.00000
    194      41.6681      0.00000
    195      41.9072      0.00000
    196      41.9600      0.00000
    197      42.1241      0.00000
    198      42.1413      0.00000
    199      42.1794      0.00000
    200      42.6122      0.00000
    201      42.6546      0.00000
    202      42.6690      0.00000
    203      43.7665      0.00000
    204      43.8084      0.00000
    205      43.8421      0.00000
    206      44.2116      0.00000
    207      44.2378      0.00000
    208      44.4019      0.00000
    209      44.7508      0.00000
    210      44.7881      0.00000
    211      44.8101      0.00000
    212      44.8123      0.00000
    213      44.8316      0.00000
    214      44.8804      0.00000
    215      45.0883      0.00000
    216      45.1270      0.00000
    217      45.2118      0.00000
    218      45.8004      0.00000
    219      45.8612      0.00000
    220      45.8757      0.00000
    221      47.1951      0.00000
    222      47.2447      0.00000
    223      47.3515      0.00000
    224      47.3612      0.00000
    225      47.5053      0.00000
    226      47.5165      0.00000
    227      47.6046      0.00000
    228      47.6184      0.00000
    229      47.6260      0.00000
    230      47.6528      0.00000
    231      47.6719      0.00000
    232      47.7745      0.00000
    233      48.0808      0.00000
    234      48.0933      0.00000
    235      48.1558      0.00000
    236      48.1778      0.00000
    237      48.1933      0.00000
    238      48.1997      0.00000
    239      48.3838      0.00000
    240      48.4228      0.00000
    241      48.7839      0.00000
    242      48.9654      0.00000
    243      49.0157      0.00000
    244      49.0767      0.00000
    245      49.5271      0.00000
    246      49.5448      0.00000
    247      49.5665      0.00000
    248      49.9944      0.00000
    249      50.3739      0.00000
    250      50.4475      0.00000
    251      50.4672      0.00000
    252      50.5787      0.00000
    253      50.5964      0.00000
    254      50.7801      0.00000
    255      51.1110      0.00000
    256      51.2348      0.00000
    257      51.3375      0.00000
    258      51.4143      0.00000
    259      51.4444      0.00000
    260      51.5394      0.00000
    261      51.6769      0.00000
    262      51.6924      0.00000
    263      52.0474      0.00000
    264      52.0582      0.00000
    265      52.3960      0.00000
    266      52.4397      0.00000
    267      52.4452      0.00000
    268      52.7451      0.00000
    269      52.7575      0.00000
    270      52.8110      0.00000
    271      52.8992      0.00000
    272      53.4736      0.00000
    273      53.5439      0.00000
    274      53.5774      0.00000
    275      53.8711      0.00000
    276      53.8946      0.00000
    277      54.2081      0.00000
    278      54.5724      0.00000
    279      54.7046      0.00000
    280      55.3528      0.00000
    281      55.4789      0.00000
    282      55.5046      0.00000
    283      55.6650      0.00000
    284      55.7881      0.00000
    285      56.2223      0.00000
    286      56.2865      0.00000
    287      56.3836      0.00000
    288      56.6201      0.00000
    289      56.6487      0.00000
    290      56.6724      0.00000
    291      56.7196      0.00000
    292      56.7412      0.00000
    293      56.8482      0.00000
    294      57.2234      0.00000
    295      57.3704      0.00000
    296      57.4081      0.00000
    297      57.5526      0.00000
    298      57.5823      0.00000
    299      57.5954      0.00000
    300      57.7357      0.00000
    301      57.7839      0.00000
    302      57.8212      0.00000
    303      57.8358      0.00000
    304      57.8638      0.00000
    305      57.9149      0.00000
    306      58.0375      0.00000
    307      58.0740      0.00000
    308      58.1527      0.00000
    309      58.2175      0.00000
    310      58.2924      0.00000
    311      58.4315      0.00000
    312      58.5016      0.00000
    313      58.9321      0.00000
    314      59.0170      0.00000
    315      59.0560      0.00000
    316      59.0770      0.00000
    317      59.1418      0.00000
    318      59.1939      0.00000
    319      59.2201      0.00000
    320      59.4212      0.00000
    321      59.4707      0.00000
    322      59.6601      0.00000
    323      59.6969      0.00000
    324      59.8154      0.00000
    325      60.0299      0.00000
    326      60.3019      0.00000
    327      60.3611      0.00000
    328      60.4942      0.00000
    329      60.7443      0.00000
    330      60.8888      0.00000
    331      61.2523      0.00000
    332      61.5924      0.00000
    333      61.6217      0.00000
    334      62.2507      0.00000
    335      62.4064      0.00000
    336      62.6194      0.00000
    337      63.1624      0.00000
    338      63.2255      0.00000
    339      63.2626      0.00000
    340      63.4020      0.00000
    341      63.4370      0.00000
    342      63.8725      0.00000
    343      63.8942      0.00000
    344      64.0425      0.00000
    345      64.3479      0.00000
    346      64.5095      0.00000
    347      64.5367      0.00000
    348      64.9556      0.00000
    349      64.9766      0.00000
    350      65.2450      0.00000
    351      65.2867      0.00000
    352      65.3057      0.00000
    353      65.3244      0.00000
    354      65.4902      0.00000
    355      65.5392      0.00000
    356      65.5624      0.00000
    357      65.6471      0.00000
    358      65.7209      0.00000
    359      65.7670      0.00000
    360      65.8136      0.00000
    361      65.9660      0.00000
    362      65.9980      0.00000
    363      66.0368      0.00000
    364      66.2322      0.00000
    365      66.2494      0.00000
    366      66.3484      0.00000
    367      66.3674      0.00000
    368      66.4869      0.00000
    369      66.6672      0.00000
    370      66.7184      0.00000
    371      66.7936      0.00000
    372      66.8100      0.00000
    373      66.8876      0.00000
    374      67.6720      0.00000
    375      67.7794      0.00000
    376      68.6574      0.00000
    377      68.7586      0.00000
    378      68.8967      0.00000
    379      69.4009      0.00000
    380      69.8899      0.00000
    381      70.1440      0.00000
    382      70.2442      0.00000
    383      70.3404      0.00000
    384      70.3818      0.00000
    385      71.3806      0.00000
    386      71.4551      0.00000
    387      71.5994      0.00000
    388      71.6836      0.00000
    389      71.7133      0.00000
    390      71.7928      0.00000
    391      72.1898      0.00000
    392      72.3366      0.00000
    393      72.3916      0.00000
    394      72.4703      0.00000
    395      72.5193      0.00000
    396      72.6555      0.00000
    397      72.7663      0.00000
    398      72.8982      0.00000
    399      72.9721      0.00000
    400      73.4126      0.00000
    401      73.5318      0.00000
    402      73.5541      0.00000
    403      73.6273      0.00000
    404      73.8092      0.00000
    405      73.8896      0.00000
    406      73.9807      0.00000
    407      74.0242      0.00000
    408      74.1125      0.00000
    409      74.2628      0.00000
    410      74.2941      0.00000
    411      74.5028      0.00000
    412      74.5569      0.00000
    413      74.6582      0.00000
    414      74.8016      0.00000
    415      74.8649      0.00000
    416      75.0228      0.00000
    417      75.1352      0.00000
    418      75.2046      0.00000
    419      75.2673      0.00000
    420      75.3129      0.00000
    421      75.4018      0.00000
    422      75.4252      0.00000
    423      75.4816      0.00000
    424      75.5297      0.00000
    425      75.5586      0.00000
    426      75.6458      0.00000
    427      75.6691      0.00000
    428      75.7568      0.00000
    429      75.8544      0.00000
    430      75.8768      0.00000
    431      76.0400      0.00000
    432      76.0741      0.00000
    433      76.1420      0.00000
    434      76.2508      0.00000
    435      76.2832      0.00000
    436      76.3940      0.00000
    437      76.4621      0.00000
    438      76.6412      0.00000
    439      76.7886      0.00000
    440      76.8967      0.00000
    441      76.9562      0.00000
    442      77.0421      0.00000
    443      77.1230      0.00000
    444      77.2250      0.00000
    445      77.2924      0.00000
    446      77.4060      0.00000
    447      77.5051      0.00000
    448      77.7902      0.00000
    449      77.9073      0.00000
    450      77.9524      0.00000
    451      78.0587      0.00000
    452      78.3573      0.00000
    453      78.3600      0.00000
    454      78.4705      0.00000
    455      78.5707      0.00000
    456      78.6233      0.00000
    457      78.7096      0.00000
    458      78.8226      0.00000
    459      78.9313      0.00000
    460      79.0409      0.00000
    461      79.1222      0.00000
    462      79.2088      0.00000
    463      79.2924      0.00000
    464      79.4160      0.00000
    465      79.4469      0.00000
    466      79.5530      0.00000
    467      79.6487      0.00000
    468      79.7668      0.00000
    469      79.8553      0.00000
    470      79.9157      0.00000
    471      80.5930      0.00000
    472      80.6700      0.00000
    473      80.8916      0.00000
    474      81.0119      0.00000
    475      81.1017      0.00000
    476      81.1416      0.00000
    477      81.2390      0.00000
    478      81.3571      0.00000
    479      81.6504      0.00000
    480      81.6654      0.00000
    481      81.7951      0.00000
    482      81.9225      0.00000
    483      82.0846      0.00000
    484      82.2243      0.00000
    485      82.5408      0.00000
    486      82.6241      0.00000
    487      82.7055      0.00000
    488      82.8135      0.00000
    489      82.9243      0.00000
    490      83.0533      0.00000
    491      83.2279      0.00000
    492      83.4134      0.00000
    493      83.5163      0.00000
    494      83.5507      0.00000
    495      83.6954      0.00000
    496      83.7937      0.00000
    497      83.8641      0.00000
    498      83.9357      0.00000
    499      84.0382      0.00000
    500      84.4992      0.00000
    501      84.5326      0.00000
    502      84.6501      0.00000
    503      84.6953      0.00000
    504      84.8253      0.00000
    505      84.8533      0.00000
    506      85.3253      0.00000
    507      85.5525      0.00000
    508      85.6110      0.00000
    509      85.6495      0.00000
    510      85.6902      0.00000
    511      85.8633      0.00000
    512      86.0123      0.00000
    513      86.4189      0.00000
    514      86.5771      0.00000
    515      87.0892      0.00000
    516      87.2217      0.00000
    517      87.5016      0.00000
    518      87.9004      0.00000
    519      88.0060      0.00000
    520      88.2866      0.00000
    521      88.6650      0.00000
    522      88.9056      0.00000
    523      88.9322      0.00000
    524      88.9829      0.00000
    525      89.1236      0.00000
    526      89.3443      0.00000
    527      89.3942      0.00000
    528      89.6097      0.00000
    529      89.7107      0.00000
    530      89.9344      0.00000
    531      89.9675      0.00000
    532      90.0042      0.00000
    533      90.1262      0.00000
    534      90.1632      0.00000
    535      90.2128      0.00000
    536      90.4112      0.00000
    537      90.4587      0.00000
    538      90.5295      0.00000
    539      90.5841      0.00000
    540      90.6368      0.00000
    541      90.7416      0.00000
    542      90.8995      0.00000
    543      91.0163      0.00000
    544      91.0544      0.00000
    545      91.2631      0.00000
    546      91.2808      0.00000
    547      91.3746      0.00000
    548      91.4350      0.00000
    549      91.5848      0.00000
    550      91.6342      0.00000
    551      91.6889      0.00000
    552      91.8298      0.00000
    553      92.0370      0.00000
    554      92.0456      0.00000
    555      92.1398      0.00000
    556      92.2966      0.00000
    557      92.3330      0.00000
    558      92.4035      0.00000
    559      92.5032      0.00000
    560      92.5287      0.00000
    561      92.5699      0.00000
    562      92.6962      0.00000
    563      93.0526      0.00000
    564      93.0925      0.00000
    565      93.2392      0.00000
    566      93.3136      0.00000
    567      93.3689      0.00000
    568      93.5200      0.00000
    569      93.6566      0.00000
    570      93.8409      0.00000
    571      93.9272      0.00000
    572      93.9651      0.00000
    573      94.0726      0.00000
    574      94.1155      0.00000
    575      94.1856      0.00000
    576      94.2262      0.00000
    577      94.2680      0.00000
    578      94.3528      0.00000
    579      94.3896      0.00000
    580      94.4426      0.00000
    581      94.5488      0.00000
    582      94.6302      0.00000
    583      94.6601      0.00000
    584      94.7521      0.00000
    585      94.8155      0.00000
    586      94.8749      0.00000
    587      95.0093      0.00000
    588      95.1134      0.00000
    589      95.1437      0.00000
    590      95.2777      0.00000
    591      95.3297      0.00000
    592      95.3535      0.00000
    593      95.4590      0.00000
    594      95.5098      0.00000
    595      95.5696      0.00000
    596      95.6198      0.00000
    597      95.8577      0.00000
    598      95.9786      0.00000
    599      96.0169      0.00000
    600      96.1091      0.00000
    601      96.1368      0.00000
    602      96.2124      0.00000
    603      96.2910      0.00000
    604      96.4637      0.00000
    605      96.7332      0.00000
    606      96.8623      0.00000
    607      97.0198      0.00000
    608      97.0330      0.00000
    609      97.3006      0.00000
    610      97.3193      0.00000
    611      97.7096      0.00000
    612      97.8783      0.00000
    613      97.9478      0.00000
    614      98.0870      0.00000
    615      98.2872      0.00000
    616      98.6549      0.00000
    617      99.0373      0.00000
    618      99.0671      0.00000
    619      99.1685      0.00000
    620      99.2506      0.00000
    621      99.3388      0.00000
    622      99.5626      0.00000
    623      99.6844      0.00000
    624      99.8711      0.00000
    625      99.9119      0.00000
    626     100.2335      0.00000
    627     100.2701      0.00000
    628     100.3546      0.00000
    629     100.6657      0.00000
    630     100.9083      0.00000
    631     100.9743      0.00000
    632     101.1903      0.00000
    633     101.2537      0.00000
    634     101.5422      0.00000
    635     101.5623      0.00000
    636     101.8445      0.00000
    637     101.9271      0.00000
    638     102.0073      0.00000
    639     102.1428      0.00000
    640     102.5594      0.00000
    641     102.6626      0.00000
    642     102.6956      0.00000
    643     102.9301      0.00000
    644     103.0618      0.00000
    645     103.1466      0.00000
    646     103.1822      0.00000
    647     103.4587      0.00000
    648     103.5442      0.00000
    649     103.5920      0.00000
    650     103.9922      0.00000
    651     104.1744      0.00000
    652     104.2577      0.00000
    653     104.4263      0.00000
    654     104.5343      0.00000
    655     104.6804      0.00000
    656     104.7546      0.00000
    657     104.9987      0.00000
    658     105.0300      0.00000
    659     105.0995      0.00000
    660     105.1477      0.00000
    661     105.3103      0.00000
    662     105.3566      0.00000
    663     105.4086      0.00000
    664     105.4717      0.00000
    665     105.5636      0.00000
    666     105.6922      0.00000
    667     105.7630      0.00000
    668     105.9492      0.00000
    669     105.9970      0.00000
    670     106.1566      0.00000
    671     106.2551      0.00000
    672     106.2830      0.00000
    673     106.6519      0.00000
    674     106.7312      0.00000
    675     106.8797      0.00000
    676     107.0423      0.00000
    677     107.1962      0.00000
    678     107.3597      0.00000
    679     107.4374      0.00000
    680     107.5799      0.00000
    681     107.6112      0.00000
    682     107.7434      0.00000
    683     107.9615      0.00000
    684     108.0414      0.00000
    685     108.1969      0.00000
    686     108.3060      0.00000
    687     108.3584      0.00000
    688     108.4981      0.00000
    689     108.9749      0.00000
    690     109.1275      0.00000
    691     109.2051      0.00000
    692     109.3041      0.00000
    693     109.3949      0.00000
    694     109.4978      0.00000
    695     109.5708      0.00000
    696     109.8450      0.00000
    697     109.9727      0.00000
    698     110.0327      0.00000
    699     110.1323      0.00000
    700     110.1972      0.00000
    701     110.2818      0.00000
    702     110.5813      0.00000
    703     110.8618      0.00000
    704     111.0517      0.00000
    705     111.1205      0.00000
    706     111.2736      0.00000
    707     111.5401      0.00000
    708     111.6100      0.00000
    709     111.6939      0.00000
    710     111.8021      0.00000
    711     111.9350      0.00000
    712     111.9674      0.00000
    713     112.0757      0.00000
    714     112.2016      0.00000
    715     112.4671      0.00000
    716     112.5881      0.00000
    717     112.9089      0.00000
    718     112.9634      0.00000
    719     113.0311      0.00000
    720     113.1053      0.00000
    721     113.2483      0.00000
    722     113.3901      0.00000
    723     113.4667      0.00000
    724     113.5125      0.00000
    725     113.5628      0.00000
    726     113.6162      0.00000
    727     113.7400      0.00000
    728     113.8663      0.00000
    729     113.9718      0.00000
    730     114.0511      0.00000
    731     114.1813      0.00000
    732     114.1836      0.00000
    733     114.3015      0.00000
    734     114.3210      0.00000
    735     114.3874      0.00000
    736     114.6932      0.00000
    737     114.7065      0.00000
    738     114.7446      0.00000
    739     114.7939      0.00000
    740     114.8901      0.00000
    741     114.9994      0.00000
    742     115.0998      0.00000
    743     115.1761      0.00000
    744     115.1818      0.00000
    745     115.3304      0.00000
    746     115.3706      0.00000
    747     115.6273      0.00000
    748     115.6716      0.00000
    749     115.8950      0.00000
    750     115.9683      0.00000
    751     116.1259      0.00000
    752     116.3837      0.00000
    753     116.4969      0.00000
    754     116.5883      0.00000
    755     116.6887      0.00000
    756     116.7732      0.00000
    757     116.8847      0.00000
    758     116.9432      0.00000
    759     117.0026      0.00000
    760     117.1978      0.00000
    761     117.2558      0.00000
    762     117.3366      0.00000
    763     117.4317      0.00000
    764     117.6128      0.00000
    765     117.7574      0.00000
    766     117.8600      0.00000
    767     117.9177      0.00000
    768     117.9661      0.00000
    769     117.9782      0.00000
    770     118.1651      0.00000
    771     118.1987      0.00000
    772     118.3221      0.00000
    773     118.4532      0.00000
    774     118.4910      0.00000
    775     118.5169      0.00000
    776     118.6612      0.00000
    777     118.7422      0.00000
    778     118.8781      0.00000
    779     118.9094      0.00000
    780     119.0315      0.00000
    781     119.0868      0.00000
    782     119.2039      0.00000
    783     119.2307      0.00000
    784     119.3648      0.00000
    785     119.4718      0.00000
    786     119.5284      0.00000
    787     119.5750      0.00000
    788     119.7642      0.00000
    789     119.8860      0.00000
    790     119.9021      0.00000
    791     119.9448      0.00000
    792     120.0890      0.00000
    793     120.1576      0.00000
    794     120.1952      0.00000
    795     120.2829      0.00000
    796     120.4791      0.00000
    797     120.6478      0.00000
    798     120.7027      0.00000
    799     120.8180      0.00000
    800     120.9280      0.00000
    801     120.9631      0.00000
    802     121.0297      0.00000
    803     121.2165      0.00000
    804     121.3107      0.00000
    805     121.4482      0.00000
    806     121.5082      0.00000
    807     121.5942      0.00000
    808     121.7855      0.00000
    809     121.9379      0.00000
    810     121.9630      0.00000
    811     122.1722      0.00000
    812     122.3417      0.00000
    813     122.6177      0.00000
    814     122.7167      0.00000
    815     122.8826      0.00000
    816     122.9507      0.00000
    817     123.0900      0.00000
    818     123.1568      0.00000
    819     123.3754      0.00000
    820     123.6693      0.00000
    821     123.7598      0.00000
    822     123.8706      0.00000
    823     124.2899      0.00000
    824     124.3192      0.00000
    825     124.4710      0.00000
    826     124.5091      0.00000
    827     124.7262      0.00000
    828     124.8031      0.00000
    829     124.8653      0.00000
    830     125.2943      0.00000
    831     125.4541      0.00000
    832     125.5889      0.00000
    833     125.8233      0.00000
    834     126.0410      0.00000
    835     126.1696      0.00000
    836     126.3025      0.00000
    837     126.7400      0.00000
    838     127.1811      0.00000
    839     127.3729      0.00000
    840     127.5768      0.00000
    841     127.6266      0.00000
    842     127.8390      0.00000
    843     127.9933      0.00000
    844     128.0476      0.00000
    845     128.1246      0.00000
    846     128.1947      0.00000
    847     128.3614      0.00000
    848     128.4418      0.00000
    849     128.4711      0.00000
    850     128.5276      0.00000
    851     128.6602      0.00000
    852     128.8435      0.00000
    853     128.9481      0.00000
    854     129.0284      0.00000
    855     129.2707      0.00000
    856     129.4368      0.00000
    857     129.5803      0.00000
    858     129.6101      0.00000
    859     129.6926      0.00000
    860     129.8136      0.00000
    861     129.8607      0.00000
    862     130.0001      0.00000
    863     130.0338      0.00000
    864     130.1060      0.00000
    865     130.2098      0.00000
    866     130.4300      0.00000
    867     130.5788      0.00000
    868     130.6248      0.00000
    869     130.6354      0.00000
    870     130.6700      0.00000
    871     130.7892      0.00000
    872     130.9354      0.00000
    873     131.3118      0.00000
    874     131.4251      0.00000
    875     131.5926      0.00000
    876     131.6936      0.00000
    877     131.8773      0.00000
    878     132.0161      0.00000
    879     132.2697      0.00000
    880     132.3399      0.00000
    881     132.5080      0.00000
    882     132.5686      0.00000
    883     132.7172      0.00000
    884     132.7651      0.00000
    885     132.8424      0.00000
    886     132.9923      0.00000
    887     133.0376      0.00000
    888     133.3577      0.00000
    889     133.4619      0.00000
    890     133.6156      0.00000
    891     133.7400      0.00000
    892     133.7972      0.00000
    893     133.8723      0.00000
    894     134.0103      0.00000
    895     134.1249      0.00000
    896     134.3051      0.00000
    897     134.4365      0.00000
    898     134.6269      0.00000
    899     134.7691      0.00000
    900     134.8716      0.00000
    901     135.1235      0.00000
    902     135.1936      0.00000
    903     135.4152      0.00000
    904     135.5078      0.00000
    905     135.7093      0.00000
    906     135.8912      0.00000
    907     136.2648      0.00000
    908     136.3820      0.00000
    909     136.4997      0.00000
    910     136.5716      0.00000
    911     136.7152      0.00000
    912     136.8374      0.00000
    913     136.9602      0.00000
    914     137.0808      0.00000
    915     137.3605      0.00000
    916     137.4629      0.00000
    917     137.5755      0.00000
    918     137.6433      0.00000
    919     137.8696      0.00000
    920     137.9441      0.00000
    921     138.0526      0.00000
    922     138.1574      0.00000
    923     138.2531      0.00000
    924     138.3851      0.00000
    925     138.4887      0.00000
    926     138.5993      0.00000
    927     138.7017      0.00000
    928     138.9421      0.00000
    929     138.9986      0.00000
    930     139.0874      0.00000
    931     139.3156      0.00000
    932     139.4054      0.00000
    933     139.5905      0.00000
    934     139.6879      0.00000
    935     139.8171      0.00000
    936     139.8856      0.00000
    937     140.0118      0.00000
    938     140.1680      0.00000
    939     140.3479      0.00000
    940     140.4174      0.00000
    941     140.4797      0.00000
    942     140.6381      0.00000
    943     140.7506      0.00000
    944     140.8991      0.00000
    945     141.0424      0.00000
    946     141.1578      0.00000
    947     141.3108      0.00000
    948     141.3411      0.00000
    949     141.7517      0.00000
    950     142.1110      0.00000
    951     142.1699      0.00000
    952     142.2673      0.00000
    953     142.4016      0.00000
    954     142.4404      0.00000
    955     142.6485      0.00000
    956     142.8125      0.00000
    957     142.9705      0.00000
    958     143.1261      0.00000
    959     143.2260      0.00000
    960     143.2966      0.00000
    961     143.4013      0.00000
    962     143.4796      0.00000
    963     143.6144      0.00000
    964     143.8274      0.00000
    965     144.0608      0.00000
    966     144.1505      0.00000
    967     144.5019      0.00000
    968     144.6451      0.00000
    969     144.8270      0.00000
    970     144.9084      0.00000
    971     145.1728      0.00000
    972     145.2551      0.00000
    973     145.2992      0.00000
    974     145.5303      0.00000
    975     145.6272      0.00000
    976     145.6842      0.00000
    977     145.7920      0.00000
    978     146.0233      0.00000
    979     146.1357      0.00000
    980     146.4323      0.00000
    981     146.4854      0.00000
    982     146.6829      0.00000
    983     146.8261      0.00000
    984     147.0196      0.00000
    985     147.1838      0.00000
    986     147.3431      0.00000
    987     147.9325      0.00000
    988     148.0556      0.00000
    989     148.2739      0.00000
    990     148.3857      0.00000
    991     148.6998      0.00000
    992     148.9340      0.00000
    993     149.0754      0.00000
    994     149.2769      0.00000
    995     149.5456      0.00000
    996     149.8264      0.00000
    997     150.1643      0.00000
    998     150.4775      0.00000
    999     150.5488      0.00000
   1000     150.6443      0.00000
   1001     150.9507      0.00000
   1002     151.2155      0.00000
   1003     151.2705      0.00000
   1004     151.4006      0.00000
   1005     151.6352      0.00000
   1006     151.9187      0.00000
   1007     152.1098      0.00000
   1008     152.2320      0.00000
   1009     152.4964      0.00000
   1010     152.7440      0.00000
   1011     153.2041      0.00000
   1012     153.3609      0.00000
   1013     153.4263      0.00000
   1014     153.5953      0.00000
   1015     153.6868      0.00000
   1016     153.7770      0.00000
   1017     153.9881      0.00000
   1018     154.2684      0.00000
   1019     154.5180      0.00000
   1020     154.8860      0.00000
   1021     154.9680      0.00000
   1022     155.2454      0.00000
   1023     155.8640      0.00000
   1024     156.4108      0.00000
   1025     156.5510      0.00000
   1026     156.9390      0.00000
   1027     157.5828      0.00000
   1028     158.4437      0.00000
   1029     159.1449      0.00000
   1030     159.2971      0.00000
   1031     159.5179      0.00000
   1032     160.5550      0.00000
   1033     161.0318      0.00000
   1034     162.0077      0.00000
   1035     162.8340      0.00000
   1036     163.1649      0.00000
   1037     163.5531      0.00000
   1038     164.7688      0.00000
   1039     165.0830      0.00000
   1040     165.5807      0.00000
   1041     165.7827      0.00000
   1042     166.5280      0.00000
   1043     166.7817      0.00000
   1044     167.8095      0.00000
   1045     168.3998      0.00000
   1046     168.6776      0.00000
   1047     169.6385      0.00000
   1048     170.5817      0.00000
   1049     171.3607      0.00000
   1050     171.7725      0.00000
   1051     172.7293      0.00000
   1052     174.2892      0.00000
   1053     174.3259      0.00000
   1054     188.4826      0.00000
   1055     138.6368      0.00000
   1056     139.6804      0.00000
   1057     139.6861      0.00000
   1058     140.0692      0.00000
   1059     140.1683      0.00000
   1060     140.2114      0.00000
   1061     140.3521      0.00000
   1062     140.7430      0.00000
   1063     140.8648      0.00000
   1064     140.9263      0.00000
   1065     141.1424      0.00000
   1066     141.3551      0.00000
   1067     141.4440      0.00000
   1068     141.4570      0.00000
   1069     141.4726      0.00000
   1070     141.4885      0.00000
   1071     141.6399      0.00000
   1072     141.8214      0.00000
   1073     141.8225      0.00000
   1074     142.0298      0.00000
   1075     142.1394      0.00000
   1076     142.1473      0.00000
   1077     142.1972      0.00000
   1078     142.2370      0.00000
   1079     142.2430      0.00000
   1080     142.2642      0.00000
   1081     142.4387      0.00000
   1082     142.4390      0.00000
   1083     142.4822      0.00000
   1084     142.4838      0.00000
   1085     142.5415      0.00000
   1086     142.6145      0.00000
   1087     142.6351      0.00000
   1088     142.6663      0.00000
   1089     142.7450      0.00000
   1090     142.8106      0.00000
   1091     142.8429      0.00000
   1092     142.8794      0.00000
   1093     143.0049      0.00000
   1094     143.0255      0.00000
   1095     143.0276      0.00000
   1096     143.0382      0.00000
   1097     143.0666      0.00000
   1098     143.0873      0.00000
   1099     143.1083      0.00000
   1100     143.2286      0.00000
   1101     143.2340      0.00000
   1102     143.3049      0.00000
   1103     143.4110      0.00000
   1104     143.4419      0.00000
   1105     143.4915      0.00000
   1106     143.5379      0.00000
   1107     143.5985      0.00000
   1108     143.6739      0.00000
   1109     143.7020      0.00000
   1110     143.7210      0.00000
   1111     143.7882      0.00000
   1112     143.9913      0.00000
   1113     144.1000      0.00000
   1114     144.1184      0.00000
   1115     144.1406      0.00000
   1116     144.1894      0.00000
   1117     144.2880      0.00000
   1118     144.2945      0.00000
   1119     144.3292      0.00000
   1120     144.3702      0.00000
   1121     144.4091      0.00000
   1122     144.4393      0.00000
   1123     144.4734      0.00000
   1124     144.5136      0.00000
   1125     144.5425      0.00000
   1126     144.5526      0.00000
   1127     144.6609      0.00000
   1128     144.7602      0.00000
   1129     144.8911      0.00000
   1130     144.9911      0.00000
   1131     145.1170      0.00000
   1132     145.1956      0.00000
   1133     145.6953      0.00000
   1134     145.7991      0.00000
   1135     145.8411      0.00000
   1136     145.9395      0.00000
   1137     146.0625      0.00000
   1138     146.1036      0.00000
   1139     146.1445      0.00000
   1140     146.3966      0.00000
   1141     146.4793      0.00000
   1142     146.5737      0.00000
   1143     146.5868      0.00000
   1144     146.9204      0.00000
   1145     147.0864      0.00000
   1146     147.1273      0.00000
   1147     147.2651      0.00000
   1148     147.3657      0.00000
   1149     148.1834      0.00000
   1150     148.8544      0.00000
   1151     149.2128      0.00000
   1152     149.3155      0.00000


--------------------------------------------------------------------------------------------------------


 soft charge-density along one line, spin component           1
         0         1         2         3         4         5         6         7         8         9
 total charge-density along one line
 
 pseudopotential strength for first ion, spin component:           1
 14.454 -16.682  -0.007  -0.007  -0.007   0.020   0.020   0.020
-16.682  52.659   0.001   0.001   0.001  -0.002  -0.002  -0.002
 -0.007   0.001   3.362  -0.006  -0.006  -9.848   0.017   0.017
 -0.007   0.001  -0.006   3.362  -0.006   0.017  -9.848   0.017
 -0.007   0.001  -0.006  -0.006   3.362   0.017   0.017  -9.848
  0.020  -0.002  -9.848   0.017   0.017  31.409  -0.045  -0.045
  0.020  -0.002   0.017  -9.848   0.017  -0.045  31.409  -0.045
  0.020  -0.002   0.017   0.017  -9.848  -0.045  -0.045  31.409
 -0.009  -0.006  -0.003  -0.000  -0.003   0.006   0.000   0.006
 -0.009  -0.006  -0.003  -0.003  -0.000   0.006   0.006   0.000
 -0.000  -0.000   0.001  -0.002   0.001  -0.002   0.005  -0.002
 -0.009  -0.006  -0.000  -0.003  -0.003   0.000   0.006   0.006
 -0.000  -0.000   0.002   0.000  -0.002  -0.004  -0.000   0.004
  0.040  -0.016   0.015   0.001   0.015  -0.040  -0.002  -0.040
  0.040  -0.016   0.015   0.015   0.001  -0.040  -0.040  -0.002
  0.000  -0.000  -0.006   0.013  -0.006   0.017  -0.034   0.017
  0.040  -0.016   0.001   0.015   0.015  -0.002  -0.040  -0.040
  0.000  -0.000  -0.011  -0.000   0.011   0.030   0.000  -0.030
 total augmentation occupancy for first ion, spin component:           1
  1.944   0.035  -0.032  -0.032  -0.032  -0.000  -0.000  -0.000   0.004   0.004   0.000   0.004   0.000  -0.000  -0.000  -0.000
  0.035   0.001  -0.000  -0.000  -0.000  -0.000  -0.000  -0.000  -0.000  -0.000   0.000  -0.000   0.000  -0.000  -0.000  -0.000
 -0.032  -0.000   0.893   0.176   0.176   0.041   0.004   0.004   0.021   0.021   0.001  -0.029   0.002   0.000   0.000  -0.000
 -0.032  -0.000   0.176   0.893   0.176   0.004   0.041   0.004  -0.029   0.022  -0.002   0.021  -0.000  -0.001   0.000   0.000
 -0.032  -0.000   0.176   0.176   0.893   0.004   0.004   0.041   0.022  -0.029   0.001   0.021  -0.002   0.000  -0.001  -0.000
 -0.000  -0.000   0.041   0.004   0.004   0.002   0.000   0.000   0.001   0.001   0.000  -0.002   0.000  -0.000  -0.000  -0.000
 -0.000  -0.000   0.004   0.041   0.004   0.000   0.002   0.000  -0.002   0.001  -0.000   0.001  -0.000  -0.000  -0.000   0.000
 -0.000  -0.000   0.004   0.004   0.041   0.000   0.000   0.002   0.001  -0.002   0.000   0.001  -0.000  -0.000  -0.000  -0.000
  0.004  -0.000   0.021  -0.029   0.022   0.001  -0.002   0.001   0.033   0.003   0.000   0.003  -0.000   0.000   0.000   0.000
  0.004  -0.000   0.021   0.022  -0.029   0.001   0.001  -0.002   0.003   0.033  -0.000   0.003   0.000   0.000   0.000  -0.000
  0.000   0.000   0.001  -0.002   0.001   0.000  -0.000   0.000   0.000  -0.000   0.046  -0.000   0.000   0.000  -0.000   0.001
  0.004  -0.000  -0.029   0.021   0.021  -0.002   0.001   0.001   0.003   0.003  -0.000   0.033  -0.000   0.000   0.000  -0.000
  0.000   0.000   0.002  -0.000  -0.002   0.000  -0.000  -0.000  -0.000   0.000   0.000  -0.000   0.046   0.000   0.000   0.000
 -0.000  -0.000   0.000  -0.001   0.000  -0.000  -0.000  -0.000   0.000   0.000   0.000   0.000   0.000   0.000   0.000   0.000
 -0.000  -0.000   0.000   0.000  -0.001  -0.000  -0.000  -0.000   0.000   0.000  -0.000   0.000   0.000   0.000   0.000  -0.000
 -0.000  -0.000  -0.000   0.000  -0.000  -0.000   0.000  -0.000   0.000  -0.000   0.001  -0.000   0.000   0.000  -0.000   0.000
 -0.000  -0.000  -0.001   0.000   0.000  -0.000  -0.000  -0.000   0.000   0.000  -0.000   0.000  -0.000   0.000   0.000  -0.000
 -0.000  -0.000  -0.000   0.000   0.000  -0.000  -0.000   0.000   0.000   0.000   0.000  -0.000   0.001   0.000   0.000   0.000


------------------------ aborting loop because EDIFF is reached ----------------------------------------


    CHARGE:  cpu time      0.0658: real time      0.0660
    FORLOC:  cpu time      0.0073: real time      0.0073
    FORHF :  cpu time      0.3393: real time      0.3406
    FORNL :  cpu time      0.0572: real time      0.0573
    FORCOR:  cpu time      0.2251: real time      0.2260
    FORHAR:  cpu time      0.0580: real time      0.0585
    MIXING:  cpu time      0.0002: real time      0.0002
    OFIELD:  cpu time      0.0001: real time      0.0002

 VOLUME and BASIS-vectors are now :
 -----------------------------------------------------------------------------
  energy-cutoff  :      400.00
  volume of cell :      327.28
      direct lattice vectors                 reciprocal lattice vectors
     5.469713400  5.469713400  0.000000000     0.091412468  0.091412468 -0.091412468
     0.000000000  5.469713400  5.469713400    -0.091412468  0.091412468  0.091412468
     5.469713400  0.000000000  5.469713400     0.091412468 -0.091412468  0.091412468

  length of vectors
     7.735342873  7.735342873  7.735342873     0.158331039  0.158331039  0.158331039


 FORCES acting on ions
    electron-ion (+dipol)            ewald-force                    non-local-force                 convergence-correction
 -----------------------------------------------------------------------------------------------
   0.145E+01 0.145E+01 0.145E+01   -.666E-15 0.251E-13 -.324E-13   0.360E+00 0.360E+00 0.360E+00   0.250E-03 0.248E-03 0.249E-03
   -.122E+01 -.122E+01 -.122E+01   -.400E-13 -.271E-13 -.382E-13   -.163E+00 -.163E+00 -.163E+00   -.516E-04 -.589E-04 -.554E-04
   0.245E+00 0.245E+00 0.172E+02   0.284E-13 0.355E-13 -.193E+02   -.236E-01 -.235E-01 0.206E+01   0.175E-04 0.122E-04 0.242E-03
   0.172E+02 0.245E+00 0.245E+00   -.193E+02 0.275E-13 0.142E-13   0.206E+01 -.235E-01 -.236E-01   0.240E-03 0.156E-04 0.169E-04
   -.669E+00 -.174E+02 -.669E+00   0.711E-14 0.193E+02 -.426E-13   0.816E+00 -.288E+01 0.816E+00   0.883E-04 -.467E-03 0.912E-04
   0.245E+00 0.172E+02 0.245E+00   0.153E-13 -.193E+02 0.175E-13   -.236E-01 0.206E+01 -.236E-01   0.150E-04 0.242E-03 0.113E-04
   -.174E+02 -.669E+00 -.669E+00   0.193E+02 -.107E-13 -.178E-13   -.288E+01 0.816E+00 0.816E+00   -.468E-03 0.884E-04 0.852E-04
   -.669E+00 -.669E+00 -.174E+02   -.178E-13 0.000E+00 0.193E+02   0.816E+00 0.816E+00 -.288E+01   0.865E-04 0.915E-04 -.467E-03
   0.109E+00 0.109E+00 0.109E+00   0.178E-13 0.142E-13 0.249E-13   -.217E+00 -.217E+00 -.217E+00   -.864E-04 -.825E-04 -.829E-04
   0.155E+02 0.155E+02 0.155E+02   -.152E+02 -.152E+02 -.152E+02   0.643E+00 0.643E+00 0.643E+00   -.341E-04 -.415E-04 -.374E-04
   -.147E+02 -.147E+02 0.157E+02   0.152E+02 0.152E+02 -.152E+02   -.959E+00 -.959E+00 -.267E+00   0.975E-06 -.236E-06 0.260E-03
   0.157E+02 -.147E+02 -.147E+02   -.152E+02 0.152E+02 0.152E+02   -.267E+00 -.959E+00 -.959E+00   0.260E-03 0.247E-05 0.242E-05
   0.601E+00 -.137E+00 0.601E+00   -.770E+00 0.770E+00 -.770E+00   0.117E+00 -.954E+00 0.117E+00   0.220E-03 -.402E-03 0.222E-03
   -.147E+02 0.157E+02 -.147E+02   0.152E+02 -.152E+02 0.152E+02   -.959E+00 -.267E+00 -.959E+00   -.196E-05 0.258E-03 -.196E-05
   -.138E+00 0.601E+00 0.601E+00   0.770E+00 -.770E+00 -.770E+00   -.954E+00 0.117E+00 0.117E+00   -.399E-03 0.224E-03 0.220E-03
   0.601E+00 0.601E+00 -.138E+00   -.770E+00 -.770E+00 0.770E+00   0.117E+00 0.117E+00 -.954E+00   0.219E-03 0.225E-03 -.401E-03
   0.400E+00 0.401E+00 0.400E+00   0.770E+00 0.770E+00 0.770E+00   -.795E+00 -.795E+00 -.795E+00   -.231E-03 -.232E-03 -.231E-03
 -----------------------------------------------------------------------------------------------
   0.262E+01 0.262E+01 0.262E+01   -.139E-13 -.124E-13 0.216E-13   -.231E+01 -.231E+01 -.231E+01   0.125E-03 0.124E-03 0.124E-03
 
 
 POSITION                                       TOTAL-FORCE (eV/Angst)
 -----------------------------------------------------------------------------------
      2.73486      2.73486      2.73486         1.834866      1.834977      1.834870
      0.00000      0.00000      0.00000        -1.416242     -1.416332     -1.416248
      8.20457      8.20457     10.91145         0.230994      0.231007      0.295357
     10.91145      8.20457      8.20457         0.295358      0.231009      0.230993
      8.20457      5.49769      8.20457         0.254723     -1.401922      0.254728
      8.20457     10.91145      8.20457         0.230994      0.295331      0.230994
      5.49769      8.20457      8.20457        -1.401881      0.254739      0.254724
      8.20457      8.20457      5.49769         0.254720      0.254746     -1.401881
      5.46971      5.46971      5.46971        -0.148506     -0.148514     -0.148506
      1.33904      1.33904      1.33904         0.882861      0.882889      0.882860
      4.13067      4.13067      1.33904        -0.443459     -0.443511      0.099430
      1.33904      4.13067      4.13067         0.099429     -0.443511     -0.443458
      4.11091      6.82852      4.11091        -0.036195     -0.435787     -0.036197
      4.13067      1.33904      4.13067        -0.443483      0.099484     -0.443489
      6.82852      4.11091      4.11091        -0.435797     -0.036192     -0.036173
      4.11091      4.11091      6.82852        -0.036175     -0.036193     -0.435796
      6.82852      6.82852      6.82852         0.277792      0.277779      0.277790
 -----------------------------------------------------------------------------------
    total drift:                               -0.000042     -0.000046     -0.000038


--------------------------------------------------------------------------------------------------------



  FREE ENERGIE OF THE ION-ELECTRON SYSTEM (eV)
  ---------------------------------------------------
  free  energy   TOTEN  =      -147.69107197 eV

  energy  without entropy=     -147.69107197  energy(sigma->0) =     -147.69107197
 


--------------------------------------------------------------------------------------------------------


    POTLOK:  cpu time      0.2160: real time      0.2167


--------------------------------------------------------------------------------------------------------


 writing wavefunctions
     LOOP+:  cpu time     40.2359: real time     40.3532
    4ORBIT:  cpu time      0.0000: real time      0.0000

 total amount of memory used by VASP MPI-rank0   181293. kBytes
=======================================================================

   base      :      30000. kBytes
   nonl-proj :       1277. kBytes
   fftplans  :        558. kBytes
   grid      :       2897. kBytes
   one-center:        132. kBytes
   HF        :         64. kBytes
   nonlr-proj:       8453. kBytes
   wavefun   :        156. kBytes
   fock_wrk  :     137756. kBytes
 
  
  
 General timing and accounting informations for this job:
 ========================================================
  
                  Total CPU time used (sec):       49.957
                            User time (sec):       29.262
                          System time (sec):       20.695
                         Elapsed time (sec):       50.364
  
                   Maximum memory used (kb):      450496.
                   Average memory used (kb):          N/A
  
                          Minor page faults:       144828
                          Major page faults:            0
                 Voluntary context switches:         1629
