 vasp.6.2.0 18Jan21 (build Nov 12 2021 22:59:13) gamma-only                     
  
 executed on             LinuxIFC date 2021.12.15  09:09:14
 running on  192 total cores
 distrk:  each k-point on  192 cores,    1 groups
 distr:  one band on NCORE=   1 cores,  192 groups


--------------------------------------------------------------------------------------------------------


 INCAR:
   ENCUT = 400
   SIGMA = 0.0001
   EDIFF = 1E-6
   LHFCALC = .TRUE.
   AEXX = 1.0
   ISYM = -1
   ALGO = sub
   NELM = 1
   NBANDS = 330
   NBANDSHIGH = 330

 POTCAR:    PAW Si_GW 04May2012                   
 -----------------------------------------------------------------------------
|                                                                             |
|           W    W    AA    RRRRR   N    N  II  N    N   GGGG   !!!           |
|           W    W   A  A   R    R  NN   N  II  NN   N  G    G  !!!           |
|           W    W  A    A  R    R  N N  N  II  N N  N  G       !!!           |
|           W WW W  AAAAAA  RRRRR   N  N N  II  N  N N  G  GGG   !            |
|           WW  WW  A    A  R   R   N   NN  II  N   NN  G    G                |
|           W    W  A    A  R    R  N    N  II  N    N   GGGG   !!!           |
|                                                                             |
|     For optimal performance we recommend to set                             |
|       NCORE = 2 up to number-of-cores-per-socket                            |
|     NCORE specifies how many cores store one orbital (NPAR=cpu/NCORE).      |
|     This setting can greatly improve the performance of VASP for DFT.       |
|     The default, NCORE=1 might be grossly inefficient on modern             |
|     multi-core architectures or massively parallel machines. Do your        |
|     own testing! More info at https://www.vasp.at/wiki/index.php/NCORE      |
|     Unfortunately you need to use the default for GW and RPA                |
|     calculations (for HF NCORE is supported but not extensively tested      |
|     yet).                                                                   |
|                                                                             |
 -----------------------------------------------------------------------------

 POTCAR:    PAW Si_GW 04May2012                   
   VRHFIN =Si: s2p2                                                                                 
   LEXCH  = PE                                                                                      
   EATOM  =   103.0669 eV,    7.5752 Ry                                                             
                                                                                                    
   TITEL  = PAW Si_GW 04May2012                                                                     
   LULTRA =        F    use ultrasoft PP ?                                                          
   IUNSCR =        1    unscreen: 0-lin 1-nonlin 2-no                                               
   RPACOR =    1.500    partial core radius                                                         
   POMASS =   28.085; ZVAL   =    4.000    mass and valenz                                          
   RCORE  =    1.900    outmost cutoff radius                                                       
   RWIGS  =    2.480; RWIGS  =    1.312    wigner-seitz radius (au A)                               
   ENMAX  =  245.345; ENMIN  =  184.009 eV                                                          
   ICORE  =        3    local potential                                                             
   LCOR   =        T    correct aug charges                                                         
   LPAW   =        T    paw PP                                                                      
   EAUG   =  412.952                                                                                
   DEXC   =    0.000                                                                                
   RMAX   =    1.950    core radius for proj-oper                                                   
   RAUG   =    1.300    factor for augmentation sphere                                              
   RDEP   =    1.993    radius for radial grids                                                     
   RDEPT  =    2.000    core radius for aug-charge                                                  
                                                                                                    
   Atomic configuration                                                                             
    7 entries                                                                                       
     n  l   j            E        occ.                                                              
     1  0  0.50     -1785.8828   2.0000                                                             
     2  0  0.50      -139.4969   2.0000                                                             
     2  1  1.50       -95.5546   6.0000                                                             
     3  0  0.50       -10.8127   2.0000                                                             
     3  1  0.50        -4.0811   2.0000                                                             
     3  2  1.50        -4.0817   0.0000                                                             
     4  3  2.50        -4.0817   0.0000                                                             
   Description                                                                                      
     l       E           TYP  RCUT    TYP  RCUT                                                     
     0    -10.8127223     23  1.900                                                                 
     0     95.2407820     23  1.900                                                                 
     1     -4.0811372     23  1.900                                                                 
     1     54.4233040     23  1.900                                                                 
     2     -8.1634956     23  1.900                                                                 
     2     81.6349560     23  1.900                                                                 
     3     27.2116520     23  1.900                                                                 
  local pseudopotential read in
  partial core-charges read in
  partial kinetic energy density read in
  kinetic energy density of atom read in
  atomic valenz-charges read in
  non local Contribution for L=           0  read in
    real space projection operators read in
  non local Contribution for L=           0  read in
    real space projection operators read in
  non local Contribution for L=           1  read in
    real space projection operators read in
  non local Contribution for L=           1  read in
    real space projection operators read in
  non local Contribution for L=           2  read in
    real space projection operators read in
  non local Contribution for L=           2  read in
    real space projection operators read in
    PAW grid and wavefunctions read in
 
   number of l-projection  operators is LMAX  =           6
   number of lm-projection operators is LMMAX =          18
 
  PAW Si_GW 04May2012                   :
 energy of atom  1       EATOM= -103.0669
 kinetic energy error for atom=    0.0012 (will be added to EATOM!!)
 
 
 POSCAR: cd:
  positions in direct lattice
  velocities in cartesian coordinates
 exchange correlation table for  LEXCH =        8
   RHO(1)=    0.500       N(1)  =     2000
   RHO(2)=  100.500       N(2)  =     4000
 


--------------------------------------------------------------------------------------------------------


 ion  position               nearest neighbor table
   1  0.001  0.001  0.001-   9 2.38  12 2.38  10 2.38
   2  0.496  0.001  0.001-   9 2.38  11 2.38  13 2.38
   3  0.001  0.496  0.001-  10 2.38  11 2.38  14 2.38
   4  0.500  0.500  0.000-   9 2.37  10 2.37  11 2.37  15 2.37
   5  0.001  0.001  0.496-  12 2.38  13 2.38  14 2.38
   6  0.500  0.000  0.500-   9 2.37  12 2.37  13 2.37  15 2.37
   7  0.000  0.500  0.500-  10 2.37  12 2.37  14 2.37  15 2.37
   8  0.500  0.500  0.500-  11 2.37  13 2.37  14 2.37  15 2.37
   9  0.625  0.125  0.125-   4 2.37   6 2.37   2 2.38   1 2.38
  10  0.125  0.625  0.125-   4 2.37   7 2.37   3 2.38   1 2.38
  11  0.625  0.625  0.125-   4 2.37   8 2.37   2 2.38   3 2.38
  12  0.125  0.125  0.625-   6 2.37   7 2.37   5 2.38   1 2.38
  13  0.625  0.125  0.625-   6 2.37   8 2.37   2 2.38   5 2.38
  14  0.125  0.625  0.625-   7 2.37   8 2.37   3 2.38   5 2.38
  15  0.625  0.625  0.625-   4 2.37   7 2.37   6 2.37   8 2.37
 

IMPORTANT INFORMATION: All symmetrisations will be switched off!
NOSYMM: (Re-)initialisation of all symmetry stuff for point group C_1.


----------------------------------------------------------------------------------------

                                     Primitive cell                                     

  volume of cell :     327.2832

  direct lattice vectors                    reciprocal lattice vectors
     5.469713400  5.469713400  0.000000000     0.091412468  0.091412468 -0.091412468
     0.000000000  5.469713400  5.469713400    -0.091412468  0.091412468  0.091412468
     5.469713400  0.000000000  5.469713400     0.091412468 -0.091412468  0.091412468

  length of vectors
     7.735342873  7.735342873  7.735342873     0.158331039  0.158331039  0.158331039

  position of ions in fractional coordinates (direct lattice)
     0.001371464  0.001371464  0.001371464
     0.495885607  0.001371464  0.001371464
     0.001371464  0.495885607  0.001371464
     0.499999461  0.499999461  0.000001617
     0.001371464  0.001371464  0.495885607
     0.499999461  0.000001617  0.499999461
     0.000001617  0.499999461  0.499999461
     0.499999461  0.499999461  0.499999461
     0.624789722  0.125210278  0.125210278
     0.125210278  0.624789722  0.125210278
     0.624789722  0.624789722  0.125210278
     0.125210278  0.125210278  0.624789722
     0.624789722  0.125210278  0.624789722
     0.125210278  0.624789722  0.624789722
     0.625000000  0.625000000  0.625000000

  ion indices of the primitive-cell ions
   primitive index   ion index
                 1           1
                 2           2
                 3           3
                 4           4
                 5           5
                 6           6
                 7           7
                 8           8
                 9           9
                10          10
                11          11
                12          12
                13          13
                14          14
                15          15

----------------------------------------------------------------------------------------

 
 
 KPOINTS: Automatic mesh                          

Automatic generation of k-mesh.
 Grid dimensions read from file:
 generate k-points for:    1    1    1

 Generating k-lattice:

  Cartesian coordinates                     Fractional coordinates (reciprocal lattice)
     0.091412468  0.091412468 -0.091412468     1.000000000  0.000000000  0.000000000
    -0.091412468  0.091412468  0.091412468     0.000000000  1.000000000 -0.000000000
     0.091412468 -0.091412468  0.091412468    -0.000000000 -0.000000000  1.000000000

  Length of vectors
     0.158331039  0.158331039  0.158331039

  Shift w.r.t. Gamma in fractional coordinates (k-lattice)
     0.000000000  0.000000000  0.000000000

 
 Subroutine IBZKPT returns following result:
 ===========================================
 
 Found      1 irreducible k-points:
 
 Following reciprocal coordinates:
            Coordinates               Weight
  0.000000  0.000000  0.000000      1.000000
 
 Following cartesian coordinates:
            Coordinates               Weight
  0.000000  0.000000  0.000000      1.000000
 
 WARNING: full set of k-points will be restricted to regular points only.

 
 Subroutine IBZKPT_HF returns following result:
 ==============================================
 
 Found      1 k-points in 1st BZ
 the following      1 k-points will be used (e.g. in the exchange kernel)
 Following reciprocal coordinates:   # in IRBZ
  0.000000  0.000000  0.000000    1.00000000   1 t-inv F
 -----------------------------------------------------------------------------
|                                                                             |
|           W    W    AA    RRRRR   N    N  II  N    N   GGGG   !!!           |
|           W    W   A  A   R    R  NN   N  II  NN   N  G    G  !!!           |
|           W    W  A    A  R    R  N N  N  II  N N  N  G       !!!           |
|           W WW W  AAAAAA  RRRRR   N  N N  II  N  N N  G  GGG   !            |
|           WW  WW  A    A  R   R   N   NN  II  N   NN  G    G                |
|           W    W  A    A  R    R  N    N  II  N    N   GGGG   !!!           |
|                                                                             |
|     The number of bands has been changed from the values supplied in        |
|     the INCAR file. This is a result of running the parallel version.       |
|     The orbitals not found in the WAVECAR file will be initialized with     |
|     random numbers, which is usually adequate. For correlated               |
|     calculations, however, you should redo the groundstate calculation.     |
|     I found NBANDS = 330. Now, NBANDS = 384.                                |
|                                                                             |
 -----------------------------------------------------------------------------



--------------------------------------------------------------------------------------------------------




 Dimension of arrays:
   k-points           NKPTS =      1   k-points in BZ     NKDIM =      1   number of bands    NBANDS=    384
   number of dos      NEDOS =    301   number of ions     NIONS =     15
   non local maximal  LDIM  =      6   non local SUM 2l+1 LMDIM =     18
   total plane-waves  NPLWV =  64000
   max r-space proj   IRMAX =      1   max aug-charges    IRDMAX=   9797
   dimension x,y,z NGX =    40 NGY =   40 NGZ =   40
   dimension x,y,z NGXF=    80 NGYF=   80 NGZF=   80
   support grid    NGXF=    80 NGYF=   80 NGZF=   80
   ions per type =              15
   lowest and highest band optimized NBANDSLOW=      -1 NBANDSHIGH=     330
   NGX,Y,Z   is equivalent  to a cutoff of   8.60,  8.60,  8.60 a.u.
   NGXF,Y,Z  is equivalent  to a cutoff of  17.19, 17.19, 17.19 a.u.

 SYSTEM =  unknown system                          
 POSCAR =  cd:                                     

 Startparameter for this run:
   NWRITE =      2    write-flag & timer
   PREC   = normal    normal or accurate (medium, high low for compatibility)
   ISTART =      1    job   : 0-new  1-cont  2-samecut
   ICHARG =      0    charge: 1-file 2-atom 10-const
   ISPIN  =      1    spin polarized calculation?
   LNONCOLLINEAR =      F non collinear calculations
   LSORBIT =      F    spin-orbit coupling
   INIWAV =      1    electr: 0-lowe 1-rand  2-diag
   LASPH  =      F    aspherical Exc in radial PAW
   METAGGA=      F    non-selfconsistent MetaGGA calc.

 Electronic Relaxation 1
   ENCUT  =  400.0 eV  29.40 Ry    5.42 a.u.  12.61 12.61 12.61*2*pi/ulx,y,z
   ENINI  =  400.0     initial cutoff
   ENAUG  =  413.0 eV  augmentation charge cutoff
   NELM   =      1;   NELMIN=  2; NELMDL=  0     # of ELM steps 
   EDIFF  = 0.1E-05   stopping-criterion for ELM
   LREAL  =      F    real-space projection
   NLSPLINE    = F    spline interpolate recip. space projectors
   LCOMPAT=      F    compatible to vasp.4.4
   GGA_COMPAT  = T    GGA compatible to vasp.4.4-vasp.4.6
   LMAXPAW     = -100 max onsite density
   LMAXMIX     =    2 max onsite mixed and CHGCAR
   VOSKOWN=      0    Vosko Wilk Nusair interpolation
   ROPT   =    0.00000
 Ionic relaxation
   EDIFFG = 0.1E-04   stopping-criterion for IOM
   NSW    =      0    number of steps for IOM
   NBLOCK =      1;   KBLOCK =      1    inner block; outer block 
   IBRION =     -1    ionic relax: 0-MD 1-quasi-New 2-CG
   NFREE  =      0    steps in history (QN), initial steepest desc. (CG)
   ISIF   =      0    stress and relaxation
   IWAVPR =     10    prediction:  0-non 1-charg 2-wave 3-comb
   ISYM   =     -1    0-nonsym 1-usesym 2-fastsym
   LCORR  =      T    Harris-Foulkes like correction to forces

   POTIM  = 0.5000    time-step for ionic-motion
   TEIN   =    0.0    initial temperature
   TEBEG  =    0.0;   TEEND  =   0.0 temperature during run
   SMASS  =  -3.00    Nose mass-parameter (am)
   estimated Nose-frequenzy (Omega)   =  0.10E-29 period in steps = 0.13E+47 mass=  -0.137E-26a.u.
   SCALEE = 1.0000    scale energy and forces
   NPACO  =    256;   APACO  = 16.0  distance and # of slots for P.C.
   PSTRESS=    0.0 pullay stress

  Mass of Ions in am
   POMASS =  28.09
  Ionic Valenz
   ZVAL   =   4.00
  Atomic Wigner-Seitz radii
   RWIGS  =  -1.00
  virtual crystal weights 
   VCA    =   1.00
   NELECT =      60.0000    total number of electrons
   NUPDOWN=      -1.0000    fix difference up-down

 DOS related values:
   EMIN   =  10.00;   EMAX   =-10.00  energy-range for DOS
   EFERMI =   0.00
   ISMEAR =     1;   SIGMA  =   0.00  broadening in eV -4-tet -1-fermi 0-gaus

 Electronic relaxation 2 (details)
   IALGO  =      4    algorithm
   LDIAG  =      T    sub-space diagonalisation (order eigenvalues)
   LSUBROT=      F    optimize rotation matrix (better conditioning)
   TURBO    =      0    0=normal 1=particle mesh
   IRESTART =      0    0=no restart 2=restart with 2 vectors
   NREBOOT  =      0    no. of reboots
   NMIN     =      0    reboot dimension
   EREF     =   0.00    reference energy to select bands
   IMIX   =      1    mixing-type and parameters
     AMIX     =   0.40;   BMIX     =  1.00
     AMIX_MAG =   1.60;   BMIX_MAG =  1.00
     AMIN     =   0.10
     WC   =   100.;   INIMIX=   1;  MIXPRE=   1;  MAXMIX= -45

 Intra band minimization:
   WEIMIN = 0.0000     energy-eigenvalue tresh-hold
   EBREAK =  0.65E-09  absolut break condition
   DEPER  =   0.30     relativ break condition  

   TIME   =   0.40     timestep for ELM

  volume/ion in A,a.u.               =      21.82       147.24
  Fermi-wavevector in a.u.,A,eV,Ry     =   0.930002  1.757449 11.767737  0.864904
  Thomas-Fermi vector in A             =   2.056345
 
 Write flags
   LWAVE        =      T    write WAVECAR
   LDOWNSAMPLE  =      F    k-point downsampling of WAVECAR
   LCHARG       =      T    write CHGCAR
   LVTOT        =      F    write LOCPOT, total local potential
   LVHAR        =      F    write LOCPOT, Hartree potential only
   LELF         =      F    write electronic localiz. function (ELF)
   LORBIT       =      0    0 simple, 1 ext, 2 COOP (PROOUT), +10 PAW based schemes


 Dipole corrections
   LMONO  =      F    monopole corrections only (constant potential shift)
   LDIPOL =      F    correct potential (dipole corrections)
   IDIPOL =      0    1-x, 2-y, 3-z, 4-all directions 
   EPSILON=  1.0000000 bulk dielectric constant

 Exchange correlation treatment:
   GGA     =    --    GGA type
   LEXCH   =     8    internal setting for exchange type
   VOSKOWN=      0    Vosko Wilk Nusair interpolation
   EXXOEP  =     0    0=HF, 1=EXX-LHF (local Hartree Fock) 2=EXX OEP
   LHFCALC =     T    Hartree Fock is set to
   LSYMGRAD=     F    symmetrize gradient (conserves proper symmetry)
   PRECFOCK=normal    Normal, Fast or Accurate (Low or Medium for compatibility)
   LRHFCALC=     F    long range Hartree Fock
   LRSCOR  =     F    long range correlation only (use DFT for short range part)
   LTHOMAS =     F    Thomas Fermi screening in HF
   LMODELHF=     F    short range full HF, long range fraction AEXX
   LFOCKACE=     T    use Adeptively-Compressed-Exchange operator
   ENCUT4O =  -1.0   cutoff for four orbital integrals eV
   LMAXFOCK=     4    L truncation for augmentation on plane wave grid
   LMAXFOCKAE=  -1    L truncation for all-electron charge restoration on plane wave grid
   NMAXFOCKAE=   1    number of basis functions for all-electron charge restoration
   LFOCKAEDFT=     F  apply the AE augmentation even for DFT
   NKREDX  =     1    reduce k-point grid by
   NKREDY  =     1    reduce k-point grid by
   NKREDZ  =     1    reduce k-point grid by
   SHIFTRED=     F    shift reduced grid of Gamma
   HFKIDENT=     F    idential grid for each k-point
   ODDONLY =     F    use only odd q-grid points
   EVENONLY=     F    use only even q-grid points
   HFALPHA =   -1.0000 decay constant for conv. correction
   MCALPHA =    0.0000 extent of test-charge in conv. correction in multipole expansion
   AEXX    =    1.0000 exact exchange contribution
   HFSCREEN=    0.0000 screening length (either q_TF or 0.3 A-1)
   HFSCREENC=   0.0000 screening length for correlation (either q_TF or 0.3 A-1)
   HFRCUT  =    0.0000 spherical cutoff for potential kernel
   ALDAX   =    0.0000 LDA exchange part
   AGGAX   =    0.0000 GGA exchange part
   ALDAC   =    0.0000 LDA correlation
   AGGAC   =    0.0000 GGA correlation
   ENCUTFOCK=  -1.0 apply spherical cutoff to Coloumb kernel
   NBANDSGWLOW=     1    first orbital included in HF term
   NBLOCK_FOCK=    64    blocking factor in FOCK_ACC
 Linear response parameters
   LEPSILON=     F    determine dielectric tensor
   LRPA    =     F    only Hartree local field effects (RPA)
   LNABLA  =     F    use nabla operator in PAW spheres
   LVEL    =     F    velocity operator in full k-point grid
   LINTERFAST=   F  fast interpolation
   KINTER  =     0    interpolate to denser k-point grid
   CSHIFT  =0.1000    complex shift for real part using Kramers Kronig
   OMEGAMAX=  -1.0    maximum frequency
   DEG_THRESHOLD= 0.2000000E-02 threshold for treating states as degnerate
   RTIME   =   -0.100 relaxation time in fs
  (WPLASMAI=    0.000 imaginary part of plasma frequency in eV, 0.658/RTIME)
   DFIELD  = 0.0000000 0.0000000 0.0000000 field for delta impulse in time
 
 Orbital magnetization related:
   ORBITALMAG=     F  switch on orbital magnetization
   LCHIMAG   =     F  perturbation theory with respect to B field
   DQ        =  0.001000  dq finite difference perturbation B field
   LLRAUG    =     F  two centre corrections for induced B field



--------------------------------------------------------------------------------------------------------


 Static calculation
 charge density and potential will be updated during run
 non-spin polarized calculation
 Subrot: only subspace diagonalization (rotation)
    band-by band algorithm
 perform sub-space diagonalisation
    before iterative eigenvector-optimisation
 Kerker-like  mixing scheme
 using additional bands          354
 reciprocal scheme for non local part
 use partial core corrections
 calculate Harris-corrections to forces 
   (improved forces if not selfconsistent)
 use gradient corrections 
 use of overlap-Matrix (Vanderbilt PP)
 Methfessel and Paxton  Order N= 1 SIGMA  =   0.00


--------------------------------------------------------------------------------------------------------


  energy-cutoff  :      400.00
  volume of cell :      327.28
      direct lattice vectors                 reciprocal lattice vectors
     5.469713400  5.469713400  0.000000000     0.091412468  0.091412468 -0.091412468
     0.000000000  5.469713400  5.469713400    -0.091412468  0.091412468  0.091412468
     5.469713400  0.000000000  5.469713400     0.091412468 -0.091412468  0.091412468

  length of vectors
     7.735342873  7.735342873  7.735342873     0.158331039  0.158331039  0.158331039


 
 old parameters found on file WAVECAR:
  energy-cutoff  :      400.00
  volume of cell :      327.28
      direct lattice vectors                 reciprocal lattice vectors
     5.469713400  5.469713400  0.000000000     0.091412468  0.091412468 -0.091412468
     0.000000000  5.469713400  5.469713400    -0.091412468  0.091412468  0.091412468
     5.469713400  0.000000000  5.469713400     0.091412468 -0.091412468  0.091412468

  length of vectors

 
 k-points in units of 2pi/SCALE and weight: Automatic mesh                          
   0.00000000  0.00000000  0.00000000       1.000
 
 k-points in reciprocal lattice and weights: Automatic mesh                          
   0.00000000  0.00000000  0.00000000       1.000
 
 position of ions in fractional coordinates (direct lattice) 
   0.00137146  0.00137146  0.00137146
   0.49588561  0.00137146  0.00137146
   0.00137146  0.49588561  0.00137146
   0.49999946  0.49999946  0.00000162
   0.00137146  0.00137146  0.49588561
   0.49999946  0.00000162  0.49999946
   0.00000162  0.49999946  0.49999946
   0.49999946  0.49999946  0.49999946
   0.62478972  0.12521028  0.12521028
   0.12521028  0.62478972  0.12521028
   0.62478972  0.62478972  0.12521028
   0.12521028  0.12521028  0.62478972
   0.62478972  0.12521028  0.62478972
   0.12521028  0.62478972  0.62478972
   0.62500000  0.62500000  0.62500000
 
 position of ions in cartesian coordinates  (Angst):
   0.01500303  0.01500303  0.01500303
   2.71985367  2.71985367  0.01500303
   0.01500303  2.71985367  2.71985367
   2.73486260  5.46970750  2.73486260
   2.71985367  0.01500303  2.71985367
   5.46970750  2.73486260  2.73486260
   2.73486260  2.73486260  5.46970750
   5.46970750  5.46970750  5.46970750
   4.10228505  4.10228505  1.36972867
   1.36972867  4.10228505  4.10228505
   4.10228505  6.83484143  4.10228505
   4.10228505  1.36972867  4.10228505
   6.83484143  4.10228505  4.10228505
   4.10228505  4.10228505  6.83484143
   6.83714175  6.83714175  6.83714175
 


--------------------------------------------------------------------------------------------------------


 use serial FFT for orbitals x direction half grid
 k-point   1 :   0.0000 0.0000 0.0000  plane waves:    2981

 maximum and minimum number of plane-waves per node :      2981     2981

 maximum number of plane-waves:      2981
 maximum index in each direction: 
   IXMAX=   12   IYMAX=   12   IZMAX=   12
   IXMIN=    0   IYMIN=  -10   IZMIN=  -10


 serial   3D FFT for wavefunctions
 parallel 3D FFT for charge:
    minimum data exchange during FFTs selected (reduces bandwidth)

 
 Radii for the augmentation spheres in the non-local exchange
 for species   1 augmentation radius   1.405 (default was   1.124)
       energy cutoff for augmentation   1600.0
 Maximum index for augmentation-charges in exchange         2259
  SETUP_FOCK is finished

 total amount of memory used by VASP MPI-rank0    42288. kBytes
=======================================================================

   base      :      30000. kBytes
   nonl-proj :       1179. kBytes
   fftplans  :        513. kBytes
   grid      :       2897. kBytes
   one-center:        116. kBytes
   HF        :         64. kBytes
   nonlr-proj:       7415. kBytes
   wavefun   :        104. kBytes
 
     INWAV:  cpu time    0.3248: real time    0.3259
 charge density for first step will be calculated from the start-wavefunctions


--------------------------------------------------------------------------------------------------------


 Maximum index for augmentation-charges          499 (set IRDMAX)


--------------------------------------------------------------------------------------------------------


 initial charge from wavefunction
    FEWALD:  cpu time    0.0026: real time    0.0026


--------------------------------------- Iteration      1(   1)  ---------------------------------------


    POTLOK:  cpu time    0.1315: real time    0.1325
    SETDIJ:  cpu time    0.0117: real time    0.0119
    EDDIAG:  cpu time    9.2275: real time    9.2627
       DOS:  cpu time    0.0011: real time    0.0011
    --------------------------------------------
      LOOP:  cpu time    9.3718: real time    9.4082

 eigenvalue-minimisations  :     0
 total energy-change (2. order) :-0.1313264E+03  ( 0.0000000E+00)
 number of electron      59.9999980 magnetization 
 augmentation part       -3.2407021 magnetization 

 Free energy of the ion-electron system (eV)
  ---------------------------------------------------
  alpha Z        PSCENC =        41.88619531
  Ewald energy   TEWEN  =     -1640.06298675
  -Hartree energ DENC   =      -156.34976172
  -exchange      EXHF   =       444.04229560
  -V(xc)+E(xc)   XCENC  =         0.00000000
  PAW double counting   =      1933.85232333    -1937.27765057
  entropy T*S    EENTRO =         0.00000000
  eigenvalues    EBANDS =      -228.47443323
  atomic energy  EATOM  =      1411.05760457
  Solvation  Ediel_sol  =         0.00000000
  ---------------------------------------------------
  free energy    TOTEN  =      -131.32641346 eV

  energy without entropy =     -131.32641346  energy(sigma->0) =     -131.32641346
  exchange ACFDT corr.  =      -752.01522897  see jH, gK, PRB 81, 115126


--------------------------------------------------------------------------------------------------------




 average (electrostatic) potential at core
  the test charge radii are     1.1243
  (the norm of the test charge is              1.0000)
       1 -50.3658       2 -52.1760       3 -52.1758       4 -50.5476       5 -52.1759
       6 -50.5476       7 -50.5476       8 -50.6263       9 -50.6594      10 -50.6594
      11 -51.1826      12 -50.6594      13 -51.1826      14 -51.1826      15 -50.4201
 
 
 
 E-fermi :   4.5486     XC(G=0):   0.0000     alpha+bet :-10.6543

 Fermi energy:         4.5485629193

 k-point     1 :       0.0000    0.0000    0.0000
  band No.  band energies     occupation 
      1     -13.4605      2.00000
      2     -10.4988      2.00000
      3     -10.4988      2.00000
      4     -10.4492      2.00000
      5      -9.6253      2.00000
      6      -7.9394      2.00000
      7      -7.9394      2.00000
      8      -7.7508      2.00000
      9      -7.7508      2.00000
     10      -7.6513      2.00000
     11      -6.7406      2.00000
     12      -6.1291      2.00000
     13      -6.1291      2.00000
     14      -6.0761      2.00000
     15      -1.6452      2.00000
     16      -1.3316      2.00000
     17      -1.2617      2.00000
     18      -1.2617      2.00000
     19      -0.7465      2.00000
     20      -0.7152      2.00000
     21      -0.7152      2.00000
     22       0.5184      2.00000
     23       0.5185      2.00000
     24       0.5769      2.00000
     25       0.6727      2.00000
     26       0.6727      2.00000
     27       1.4907      2.00000
     28       1.6235      2.00000
     29       1.6235      2.00000
     30       4.3820      2.00000
     31      10.2552      0.00000
     32      10.2591      0.00000
     33      10.6319      0.00000
     34      10.6444      0.00000
     35      10.7199      0.00000
     36      10.7570      0.00000
     37      10.8800      0.00000
     38      10.8865      0.00000
     39      11.6875      0.00000
     40      11.6965      0.00000
     41      11.7168      0.00000
     42      13.0023      0.00000
     43      13.0870      0.00000
     44      13.1241      0.00000
     45      13.1286      0.00000
     46      13.6135      0.00000
     47      13.6421      0.00000
     48      13.6525      0.00000
     49      13.9503      0.00000
     50      13.9540      0.00000
     51      14.6986      0.00000
     52      14.7628      0.00000
     53      14.7658      0.00000
     54      15.5052      0.00000
     55      18.3693      0.00000
     56      18.7639      0.00000
     57      18.9949      0.00000
     58      19.1410      0.00000
     59      19.1686      0.00000
     60      19.3985      0.00000
     61      20.0143      0.00000
     62      22.0941      0.00000
     63      22.1229      0.00000
     64      22.2380      0.00000
     65      22.2712      0.00000
     66      22.3289      0.00000
     67      22.3557      0.00000
     68      22.3637      0.00000
     69      22.3676      0.00000
     70      22.4458      0.00000
     71      22.4819      0.00000
     72      22.4944      0.00000
     73      22.5122      0.00000
     74      22.5728      0.00000
     75      22.5996      0.00000
     76      22.6741      0.00000
     77      22.7060      0.00000
     78      22.7570      0.00000
     79      22.8908      0.00000
     80      22.9649      0.00000
     81      23.0170      0.00000
     82      23.2610      0.00000
     83      23.3482      0.00000
     84      23.3788      0.00000
     85      23.6842      0.00000
     86      23.6977      0.00000
     87      23.7836      0.00000
     88      23.8232      0.00000
     89      23.9191      0.00000
     90      24.0514      0.00000
     91      24.0690      0.00000
     92      24.1332      0.00000
     93      24.2205      0.00000
     94      24.6339      0.00000
     95      24.8079      0.00000
     96      24.8249      0.00000
     97      24.8867      0.00000
     98      24.9019      0.00000
     99      24.9245      0.00000
    100      24.9523      0.00000
    101      25.4310      0.00000
    102      25.4842      0.00000
    103      25.5915      0.00000
    104      25.6431      0.00000
    105      25.8110      0.00000
    106      25.8694      0.00000
    107      26.3011      0.00000
    108      26.3611      0.00000
    109      26.3934      0.00000
    110      28.4182      0.00000
    111      28.6946      0.00000
    112      28.7968      0.00000
    113      29.6309      0.00000
    114      32.7474      0.00000
    115      33.1934      0.00000
    116      33.3622      0.00000
    117      33.4096      0.00000
    118      33.5584      0.00000
    119      33.7001      0.00000
    120      33.8524      0.00000
    121      33.8922      0.00000
    122      33.9969      0.00000
    123      34.0606      0.00000
    124      34.1185      0.00000
    125      34.1211      0.00000
    126      34.1872      0.00000
    127      34.2001      0.00000
    128      34.2733      0.00000
    129      34.3505      0.00000
    130      34.3955      0.00000
    131      34.4965      0.00000
    132      34.5153      0.00000
    133      34.5486      0.00000
    134      34.8398      0.00000
    135      34.9900      0.00000
    136      35.1017      0.00000
    137      35.1184      0.00000
    138      35.1955      0.00000
    139      35.5453      0.00000
    140      35.7907      0.00000
    141      35.9771      0.00000
    142      36.0284      0.00000
    143      36.0704      0.00000
    144      36.1210      0.00000
    145      36.2429      0.00000
    146      36.2890      0.00000
    147      36.4443      0.00000
    148      36.5335      0.00000
    149      36.5712      0.00000
    150      36.5901      0.00000
    151      36.7312      0.00000
    152      36.8071      0.00000
    153      36.8243      0.00000
    154      37.0737      0.00000
    155      37.1517      0.00000
    156      37.4213      0.00000
    157      37.4448      0.00000
    158      37.6886      0.00000
    159      37.9601      0.00000
    160      38.1781      0.00000
    161      38.4825      0.00000
    162      40.0265      0.00000
    163      40.2677      0.00000
    164      40.4235      0.00000
    165      40.5316      0.00000
    166      40.6645      0.00000
    167      41.0009      0.00000
    168      41.2593      0.00000
    169      41.4108      0.00000
    170      41.5656      0.00000
    171      41.6780      0.00000
    172      41.8900      0.00000
    173      42.0674      0.00000
    174      42.2291      0.00000
    175      42.2817      0.00000
    176      42.3474      0.00000
    177      42.4719      0.00000
    178      42.5564      0.00000
    179      42.7155      0.00000
    180      42.7709      0.00000
    181      43.0088      0.00000
    182      43.2299      0.00000
    183      43.3092      0.00000
    184      43.3657      0.00000
    185      43.3830      0.00000
    186      43.9765      0.00000
    187      44.3326      0.00000
    188      44.5495      0.00000
    189      44.6430      0.00000
    190      44.7939      0.00000
    191      44.8597      0.00000
    192      44.9837      0.00000
    193      45.1290      0.00000
    194      45.4457      0.00000
    195      45.4934      0.00000
    196      45.5834      0.00000
    197      46.0454      0.00000
    198      46.0905      0.00000
    199      46.1942      0.00000
    200      46.2314      0.00000
    201      46.6368      0.00000
    202      46.8476      0.00000
    203      47.0335      0.00000
    204      47.1351      0.00000
    205      47.2447      0.00000
    206      47.7077      0.00000
    207      48.0629      0.00000
    208      48.6032      0.00000
    209      49.4286      0.00000
    210      49.8528      0.00000
    211      49.9596      0.00000
    212      50.1817      0.00000
    213      50.3525      0.00000
    214      50.7701      0.00000
    215      50.9822      0.00000
    216      51.2574      0.00000
    217      51.3583      0.00000
    218      51.5061      0.00000
    219      51.6163      0.00000
    220      51.7073      0.00000
    221      51.8395      0.00000
    222      51.9607      0.00000
    223      51.9875      0.00000
    224      52.1189      0.00000
    225      52.2698      0.00000
    226      52.3168      0.00000
    227      52.4049      0.00000
    228      52.5899      0.00000
    229      52.6905      0.00000
    230      53.1179      0.00000
    231      53.4758      0.00000
    232      53.6057      0.00000
    233      53.7255      0.00000
    234      53.8373      0.00000
    235      54.4389      0.00000
    236      54.6566      0.00000
    237      54.7699      0.00000
    238      55.0800      0.00000
    239      55.1899      0.00000
    240      55.2349      0.00000
    241      55.4097      0.00000
    242      55.6471      0.00000
    243      55.9815      0.00000
    244      56.0824      0.00000
    245      56.2185      0.00000
    246      56.3648      0.00000
    247      56.6499      0.00000
    248      56.8069      0.00000
    249      56.9191      0.00000
    250      57.1473      0.00000
    251      57.2141      0.00000
    252      57.5024      0.00000
    253      57.6225      0.00000
    254      57.9787      0.00000
    255      58.0253      0.00000
    256      58.0812      0.00000
    257      58.2651      0.00000
    258      58.4033      0.00000
    259      58.5960      0.00000
    260      58.9823      0.00000
    261      59.3107      0.00000
    262      59.4164      0.00000
    263      59.4594      0.00000
    264      59.7241      0.00000
    265      60.3049      0.00000
    266      60.8884      0.00000
    267      61.1093      0.00000
    268      61.1539      0.00000
    269      61.4251      0.00000
    270      61.6276      0.00000
    271      61.7766      0.00000
    272      61.8270      0.00000
    273      62.2379      0.00000
    274      62.5146      0.00000
    275      62.6763      0.00000
    276      62.8840      0.00000
    277      62.9271      0.00000
    278      63.3152      0.00000
    279      63.3932      0.00000
    280      63.4653      0.00000
    281      64.1540      0.00000
    282      64.2708      0.00000
    283      64.4740      0.00000
    284      64.9412      0.00000
    285      65.0448      0.00000
    286      65.3730      0.00000
    287      65.5316      0.00000
    288      65.6564      0.00000
    289      65.8948      0.00000
    290      65.9838      0.00000
    291      66.0490      0.00000
    292      66.1871      0.00000
    293      66.5096      0.00000
    294      66.8209      0.00000
    295      67.1525      0.00000
    296      67.4159      0.00000
    297      67.6192      0.00000
    298      67.6855      0.00000
    299      67.7872      0.00000
    300      68.3536      0.00000
    301      68.7593      0.00000
    302      68.8460      0.00000
    303      69.2603      0.00000
    304      69.3494      0.00000
    305      69.4605      0.00000
    306      69.5905      0.00000
    307      69.6828      0.00000
    308      69.8295      0.00000
    309      70.0926      0.00000
    310      70.4737      0.00000
    311      70.8314      0.00000
    312      71.4345      0.00000
    313      71.7899      0.00000
    314      72.2617      0.00000
    315      72.2810      0.00000
    316      72.5445      0.00000
    317      72.6161      0.00000
    318      72.7700      0.00000
    319      72.8633      0.00000
    320      72.9447      0.00000
    321      73.2883      0.00000
    322      73.5959      0.00000
    323      74.1993      0.00000
    324      74.8635      0.00000
    325      75.2481      0.00000
    326      75.8718      0.00000
    327      77.2777      0.00000
    328      78.5961      0.00000
    329      79.0626      0.00000
    330      80.3624      0.00000
    331      60.1754      0.00000
    332      61.2542      0.00000
    333      61.6014      0.00000
    334      62.3045      0.00000
    335      63.0391      0.00000
    336      63.1022      0.00000
    337      63.3970      0.00000
    338      63.5280      0.00000
    339      63.5649      0.00000
    340      64.3441      0.00000
    341      64.5748      0.00000
    342      64.8759      0.00000
    343      64.9354      0.00000
    344      64.9502      0.00000
    345      64.9856      0.00000
    346      65.6865      0.00000
    347      66.0370      0.00000
    348      66.5450      0.00000
    349      67.2508      0.00000
    350      67.3308      0.00000
    351      67.6685      0.00000
    352      67.7872      0.00000
    353      67.8828      0.00000
    354      68.3385      0.00000
    355      69.3609      0.00000
    356      69.5177      0.00000
    357      69.9355      0.00000
    358      70.2747      0.00000
    359      70.3064      0.00000
    360      71.2826      0.00000
    361      72.7734      0.00000
    362      73.1147      0.00000
    363      73.3117      0.00000
    364      73.7767      0.00000
    365      73.8740      0.00000
    366      73.8858      0.00000
    367      73.9311      0.00000
    368      74.2933      0.00000
    369      74.5411      0.00000
    370      75.7514      0.00000
    371      76.8933      0.00000
    372      77.6068      0.00000
    373      78.2547      0.00000
    374      78.7239      0.00000
    375      79.3771      0.00000
    376      79.4185      0.00000
    377      79.4545      0.00000
    378      79.6649      0.00000
    379      80.9628      0.00000
    380      81.0799      0.00000
    381      81.3190      0.00000
    382      81.7997      0.00000
    383      82.7590      0.00000
    384      85.5356      0.00000


--------------------------------------------------------------------------------------------------------


 soft charge-density along one line, spin component           1
         0         1         2         3         4         5         6         7         8         9
 total charge-density along one line
 
 pseudopotential strength for first ion, spin component:           1
 14.418 -16.702  -0.027  -0.027  -0.027   0.086   0.086   0.086
-16.702  52.819   0.009   0.009   0.009  -0.023  -0.023  -0.023
 -0.027   0.009   3.360   0.001   0.001  -9.837  -0.002  -0.002
 -0.027   0.009   0.001   3.360   0.001  -0.002  -9.837  -0.002
 -0.027   0.009   0.001   0.001   3.360  -0.002  -0.002  -9.837
  0.086  -0.023  -9.837  -0.002  -0.002  31.364   0.006   0.006
  0.086  -0.023  -0.002  -9.837  -0.002   0.006  31.364   0.006
  0.086  -0.023  -0.002  -0.002  -9.837   0.006   0.006  31.364
  0.001   0.000  -0.009  -0.004  -0.009   0.017   0.007   0.017
  0.001   0.000  -0.009  -0.009  -0.004   0.017   0.017   0.007
 -0.000  -0.000   0.006  -0.012   0.006  -0.011   0.023  -0.011
  0.001   0.000  -0.004  -0.009  -0.009   0.007   0.017   0.017
  0.000   0.000   0.010  -0.000  -0.010  -0.020   0.000   0.020
 -0.007   0.004   0.046   0.017   0.046  -0.125  -0.044  -0.125
 -0.007   0.004   0.046   0.046   0.017  -0.125  -0.125  -0.044
  0.000  -0.000  -0.030   0.061  -0.030   0.081  -0.162   0.081
 -0.007   0.004   0.017   0.046   0.046  -0.044  -0.125  -0.125
 -0.000   0.000  -0.053   0.000   0.053   0.140  -0.000  -0.140
 total augmentation occupancy for first ion, spin component:           1
  1.666   0.041   0.224   0.224   0.224   0.003   0.003   0.003  -0.025  -0.025   0.000  -0.025  -0.000  -0.000  -0.000  -0.000
  0.041   0.001  -0.005  -0.005  -0.005  -0.000  -0.000  -0.000  -0.001  -0.001  -0.000  -0.001   0.000  -0.000  -0.000  -0.000
  0.224  -0.005   1.187  -0.031  -0.031   0.047  -0.004  -0.004  -0.063  -0.063   0.007   0.140   0.012  -0.000  -0.000   0.000
  0.224  -0.005  -0.031   1.187  -0.031  -0.004   0.047  -0.004   0.140  -0.063  -0.013  -0.063  -0.000   0.000  -0.000  -0.000
  0.224  -0.005  -0.031  -0.031   1.187  -0.004  -0.004   0.047  -0.063   0.140   0.007  -0.063  -0.012  -0.000   0.000   0.000
  0.003  -0.000   0.047  -0.004  -0.004   0.002  -0.000  -0.000  -0.003  -0.003   0.000   0.006   0.001  -0.000  -0.000   0.000
  0.003  -0.000  -0.004   0.047  -0.004  -0.000   0.002  -0.000   0.006  -0.003  -0.001  -0.003  -0.000   0.000  -0.000  -0.000
  0.003  -0.000  -0.004  -0.004   0.047  -0.000  -0.000   0.002  -0.003   0.006   0.000  -0.003  -0.001  -0.000   0.000   0.000
 -0.025  -0.001  -0.063   0.140  -0.063  -0.003   0.006  -0.003   0.025  -0.011  -0.002  -0.011  -0.000   0.000  -0.000   0.000
 -0.025  -0.001  -0.063  -0.063   0.140  -0.003  -0.003   0.006  -0.011   0.025   0.001  -0.011  -0.002  -0.000   0.000  -0.000
  0.000  -0.000   0.007  -0.013   0.007   0.000  -0.001   0.000  -0.002   0.001   0.002   0.001  -0.000   0.000  -0.000   0.000
 -0.025  -0.001   0.140  -0.063  -0.063   0.006  -0.003  -0.003  -0.011  -0.011   0.001   0.025   0.002  -0.000  -0.000  -0.000
 -0.000   0.000   0.012  -0.000  -0.012   0.001  -0.000  -0.001  -0.000  -0.002  -0.000   0.002   0.002  -0.000   0.000   0.000
 -0.000  -0.000  -0.000   0.000  -0.000  -0.000   0.000  -0.000   0.000  -0.000   0.000  -0.000  -0.000   0.000  -0.000   0.000
 -0.000  -0.000  -0.000  -0.000   0.000  -0.000  -0.000   0.000  -0.000   0.000  -0.000  -0.000   0.000  -0.000   0.000  -0.000
 -0.000  -0.000   0.000  -0.000   0.000   0.000  -0.000   0.000   0.000  -0.000   0.000  -0.000   0.000   0.000  -0.000   0.000
 -0.000  -0.000   0.000  -0.000  -0.000   0.000  -0.000  -0.000  -0.000  -0.000  -0.000   0.000  -0.000  -0.000  -0.000  -0.000
  0.000   0.000   0.000  -0.000  -0.000   0.000  -0.000  -0.000  -0.000   0.000   0.000  -0.000   0.000  -0.000   0.000   0.000


------------------------ aborting loop because EDIFF is reached ----------------------------------------


    CHARGE:  cpu time    0.0214: real time    0.0214
    FORLOC:  cpu time    0.0024: real time    0.0024
    FORHF :  cpu time    0.2702: real time    0.2714
    FORNL :  cpu time    0.0450: real time    0.0455
    FORCOR:  cpu time    0.1246: real time    0.1249
    FORHAR:  cpu time    0.0289: real time    0.0293
    MIXING:  cpu time    0.0003: real time    0.0003
    OFIELD:  cpu time    0.0001: real time    0.0002

 VOLUME and BASIS-vectors are now :
 -----------------------------------------------------------------------------
  energy-cutoff  :      400.00
  volume of cell :      327.28
      direct lattice vectors                 reciprocal lattice vectors
     5.469713400  5.469713400  0.000000000     0.091412468  0.091412468 -0.091412468
     0.000000000  5.469713400  5.469713400    -0.091412468  0.091412468  0.091412468
     5.469713400  0.000000000  5.469713400     0.091412468 -0.091412468  0.091412468

  length of vectors
     7.735342873  7.735342873  7.735342873     0.158331039  0.158331039  0.158331039


 FORCES acting on ions
    electron-ion (+dipol)            ewald-force                    non-local-force                 convergence-correction
 -----------------------------------------------------------------------------------------------
   -.131E+02 -.131E+02 -.131E+02   0.189E+02 0.189E+02 0.189E+02   -.597E+01 -.597E+01 -.597E+01   0.283E-03 0.264E-03 0.230E-03
   0.209E+02 0.209E+02 -.210E+02   -.189E+02 -.189E+02 0.189E+02   -.444E+00 -.444E+00 0.134E+01   -.165E-03 -.178E-03 0.369E-05
   -.210E+02 0.209E+02 0.209E+02   0.189E+02 -.189E+02 -.189E+02   0.134E+01 -.443E+00 -.443E+00   0.999E-05 -.136E-03 -.155E-03
   -.185E+01 0.924E+00 -.185E+01   0.122E+01 -.122E+01 0.122E+01   0.411E+00 0.487E+00 0.411E+00   0.177E-03 -.109E-03 0.226E-03
   0.209E+02 -.210E+02 0.209E+02   -.189E+02 0.189E+02 -.189E+02   -.443E+00 0.134E+01 -.443E+00   -.138E-03 0.879E-05 -.171E-03
   0.924E+00 -.185E+01 -.185E+01   -.122E+01 0.122E+01 0.122E+01   0.487E+00 0.411E+00 0.411E+00   -.108E-03 0.178E-03 0.211E-03
   -.185E+01 -.185E+01 0.924E+00   0.122E+01 0.122E+01 -.122E+01   0.411E+00 0.411E+00 0.487E+00   0.205E-03 0.222E-03 -.112E-03
   0.174E+01 0.174E+01 0.174E+01   -.122E+01 -.122E+01 -.122E+01   -.296E+00 -.296E+00 -.296E+00   -.246E-03 -.232E-03 -.209E-03
   0.993E-01 0.993E-01 0.203E+01   0.199E-11 0.201E-11 -.138E+01   -.625E+00 -.625E+00 0.441E+00   -.210E-04 -.382E-04 0.402E-03
   0.203E+01 0.992E-01 0.993E-01   -.138E+01 0.203E-11 0.202E-11   0.441E+00 -.625E+00 -.625E+00   0.390E-03 0.626E-05 -.300E-04
   -.702E+00 -.329E+01 -.702E+00   -.104E-11 0.138E+01 -.106E-11   0.218E+00 0.737E+00 0.218E+00   -.134E-03 -.224E-03 -.103E-03
   0.992E-01 0.203E+01 0.993E-01   0.203E-11 -.138E+01 0.201E-11   -.625E+00 0.441E+00 -.625E+00   0.826E-05 0.392E-03 -.454E-04
   -.329E+01 -.702E+00 -.702E+00   0.138E+01 -.105E-11 -.103E-11   0.737E+00 0.218E+00 0.218E+00   -.227E-03 -.136E-03 -.117E-03
   -.702E+00 -.702E+00 -.329E+01   -.105E-11 -.103E-11 0.138E+01   0.218E+00 0.218E+00 0.737E+00   -.108E-03 -.949E-04 -.220E-03
   0.409E+00 0.409E+00 0.409E+00   0.439E-12 0.470E-12 0.439E-12   -.372E-01 -.372E-01 -.372E-01   0.135E-03 0.151E-03 0.187E-03
 -----------------------------------------------------------------------------------------------
   0.472E+01 0.472E+01 0.472E+01   0.104E-13 0.561E-14 0.102E-13   -.417E+01 -.417E+01 -.417E+01   0.602E-04 0.742E-04 0.976E-04
 
 
 POSITION                                       TOTAL-FORCE (eV/Angst)
 -----------------------------------------------------------------------------------
      0.01500      0.01500      0.01500        -0.650002     -0.650010     -0.649996
      2.71985      2.71985      0.01500         1.273332      1.273266     -0.362272
      0.01500      2.71985      2.71985        -0.362356      1.273289      1.273175
      2.73486      5.46971      2.73486        -0.164298      0.248754     -0.164309
      2.71985      0.01500      2.71985         1.273348     -0.362331      1.273167
      5.46971      2.73486      2.73486         0.248752     -0.164308     -0.164312
      2.73486      2.73486      5.46971        -0.164299     -0.164302      0.248776
      5.46971      5.46971      5.46971         0.178053      0.178065      0.178081
      4.10229      4.10229      1.36973        -0.594897     -0.594865      1.098799
      1.36973      4.10229      4.10229         1.098810     -0.594834     -0.594831
      4.10229      6.83484      4.10229        -0.462421     -0.989959     -0.462335
      4.10229      1.36973      4.10229        -0.594864      1.098809     -0.594830
      6.83484      4.10229      4.10229        -0.989964     -0.462394     -0.462341
      4.10229      4.10229      6.83484        -0.462407     -0.462378     -0.989947
      6.83714      6.83714      6.83714         0.373212      0.373198      0.373176
 -----------------------------------------------------------------------------------
    total drift:                               -0.000306     -0.000303     -0.000287


--------------------------------------------------------------------------------------------------------



  FREE ENERGIE OF THE ION-ELECTRON SYSTEM (eV)
  ---------------------------------------------------
  free  energy   TOTEN  =      -131.32641346 eV

  energy  without entropy=     -131.32641346  energy(sigma->0) =     -131.32641346
 


--------------------------------------------------------------------------------------------------------


    POTLOK:  cpu time    0.1384: real time    0.1390


--------------------------------------------------------------------------------------------------------


 writing wavefunctions
     LOOP+:  cpu time   11.0129: real time   11.0715
    4ORBIT:  cpu time    0.0000: real time    0.0000

 total amount of memory used by VASP MPI-rank0   180045. kBytes
=======================================================================

   base      :      30000. kBytes
   nonl-proj :       1179. kBytes
   fftplans  :        513. kBytes
   grid      :       2897. kBytes
   one-center:        116. kBytes
   HF        :         64. kBytes
   nonlr-proj:       7415. kBytes
   wavefun   :        104. kBytes
   fock_wrk  :     137757. kBytes
 
  
  
 General timing and accounting informations for this job:
 ========================================================
  
                  Total CPU time used (sec):       16.093
                            User time (sec):       10.198
                          System time (sec):        5.895
                         Elapsed time (sec):       16.759
  
                   Maximum memory used (kb):     1450196.
                   Average memory used (kb):          N/A
  
                          Minor page faults:       322600
                          Major page faults:            0
                 Voluntary context switches:         1555
