 vasp.6.3.0 20Jan22 (build Mar 03 2022 12:53:00) gamma-only                     
  
 executed on             LinuxIFC date 2022.03.15  20:20:13
 running on  384 total cores
 distrk:  each k-point on  384 cores,    1 groups
 distr:  one band on NCORE=   1 cores,  384 groups


--------------------------------------------------------------------------------------------------------


 INCAR:
   ENCUT = 400
   SIGMA = 0.0001
   EDIFF = 1E-6

 POTCAR:    PAW Si_GW 04May2012                   
 -----------------------------------------------------------------------------
|                                                                             |
|           W    W    AA    RRRRR   N    N  II  N    N   GGGG   !!!           |
|           W    W   A  A   R    R  NN   N  II  NN   N  G    G  !!!           |
|           W    W  A    A  R    R  N N  N  II  N N  N  G       !!!           |
|           W WW W  AAAAAA  RRRRR   N  N N  II  N  N N  G  GGG   !            |
|           WW  WW  A    A  R   R   N   NN  II  N   NN  G    G                |
|           W    W  A    A  R    R  N    N  II  N    N   GGGG   !!!           |
|                                                                             |
|     For optimal performance we recommend to set                             |
|       NCORE = 2 up to number-of-cores-per-socket                            |
|     NCORE specifies how many cores store one orbital (NPAR=cpu/NCORE).      |
|     This setting can greatly improve the performance of VASP for DFT.       |
|     The default, NCORE=1 might be grossly inefficient on modern             |
|     multi-core architectures or massively parallel machines. Do your        |
|     own testing! More info at https://www.vasp.at/wiki/index.php/NCORE      |
|     Unfortunately you need to use the default for GW and RPA                |
|     calculations (for HF NCORE is supported but not extensively tested      |
|     yet).                                                                   |
|                                                                             |
 -----------------------------------------------------------------------------

 POTCAR:    PAW Si_GW 04May2012                   
   VRHFIN =Si: s2p2                                                                                 
   LEXCH  = PE                                                                                      
   EATOM  =   103.0669 eV,    7.5752 Ry                                                             
                                                                                                    
   TITEL  = PAW Si_GW 04May2012                                                                     
   LULTRA =        F    use ultrasoft PP ?                                                          
   IUNSCR =        1    unscreen: 0-lin 1-nonlin 2-no                                               
   RPACOR =    1.500    partial core radius                                                         
   POMASS =   28.085; ZVAL   =    4.000    mass and valenz                                          
   RCORE  =    1.900    outmost cutoff radius                                                       
   RWIGS  =    2.480; RWIGS  =    1.312    wigner-seitz radius (au A)                               
   ENMAX  =  245.345; ENMIN  =  184.009 eV                                                          
   ICORE  =        3    local potential                                                             
   LCOR   =        T    correct aug charges                                                         
   LPAW   =        T    paw PP                                                                      
   EAUG   =  412.952                                                                                
   DEXC   =    0.000                                                                                
   RMAX   =    1.950    core radius for proj-oper                                                   
   RAUG   =    1.300    factor for augmentation sphere                                              
   RDEP   =    1.993    radius for radial grids                                                     
   RDEPT  =    2.000    core radius for aug-charge                                                  
                                                                                                    
   Atomic configuration                                                                             
    7 entries                                                                                       
     n  l   j            E        occ.                                                              
     1  0  0.50     -1785.8828   2.0000                                                             
     2  0  0.50      -139.4969   2.0000                                                             
     2  1  1.50       -95.5546   6.0000                                                             
     3  0  0.50       -10.8127   2.0000                                                             
     3  1  0.50        -4.0811   2.0000                                                             
     3  2  1.50        -4.0817   0.0000                                                             
     4  3  2.50        -4.0817   0.0000                                                             
   Description                                                                                      
     l       E           TYP  RCUT    TYP  RCUT                                                     
     0    -10.8127223     23  1.900                                                                 
     0     95.2407820     23  1.900                                                                 
     1     -4.0811372     23  1.900                                                                 
     1     54.4233040     23  1.900                                                                 
     2     -8.1634956     23  1.900                                                                 
     2     81.6349560     23  1.900                                                                 
     3     27.2116520     23  1.900                                                                 
  local pseudopotential read in
  partial core-charges read in
  partial kinetic energy density read in
  kinetic energy density of atom read in
  atomic valenz-charges read in
  non local Contribution for L=           0  read in
    real space projection operators read in
  non local Contribution for L=           0  read in
    real space projection operators read in
  non local Contribution for L=           1  read in
    real space projection operators read in
  non local Contribution for L=           1  read in
    real space projection operators read in
  non local Contribution for L=           2  read in
    real space projection operators read in
  non local Contribution for L=           2  read in
    real space projection operators read in
    PAW grid and wavefunctions read in
 
   number of l-projection  operators is LMAX  =           6
   number of lm-projection operators is LMMAX =          18
 
  PAW Si_GW 04May2012                   :
 energy of atom  1       EATOM= -103.0669
 kinetic energy error for atom=    0.0012 (will be added to EATOM!!)
 
 
 POSCAR: cd:
  positions in direct lattice
  velocities in cartesian coordinates
 exchange correlation table for  LEXCH =        8
   RHO(1)=    0.500       N(1)  =     2000
   RHO(2)=  100.500       N(2)  =     4000
 


--------------------------------------------------------------------------------------------------------


 ion  position               nearest neighbor table
   1  0.000  0.000  0.000-   9 2.37  10 2.37  11 2.37  13 2.37
   2  0.500  0.000  0.000-   9 2.37  10 2.37  12 2.37  14 2.37
   3  0.000  0.500  0.000-   9 2.37  11 2.37  12 2.37  15 2.37
   4  0.500  0.500  0.000-  10 2.37  11 2.37  12 2.37  16 2.37
   5  0.000  0.000  0.500-   9 2.37  13 2.37  14 2.37  15 2.37
   6  0.500  0.000  0.500-  10 2.37  13 2.37  14 2.37  16 2.37
   7  0.000  0.500  0.500-  11 2.37  13 2.37  15 2.37  16 2.37
   8  0.500  0.500  0.500-  12 2.37  14 2.37  15 2.37  16 2.37
   9  0.125  0.125  0.125-   1 2.37   2 2.37   3 2.37   5 2.37
  10  0.625  0.125  0.125-   1 2.37   2 2.37   4 2.37   6 2.37
  11  0.125  0.625  0.125-   1 2.37   3 2.37   4 2.37   7 2.37
  12  0.625  0.625  0.125-   2 2.37   3 2.37   4 2.37   8 2.37
  13  0.125  0.125  0.625-   1 2.37   5 2.37   6 2.37   7 2.37
  14  0.625  0.125  0.625-   2 2.37   5 2.37   6 2.37   8 2.37
  15  0.125  0.625  0.625-   3 2.37   5 2.37   7 2.37   8 2.37
  16  0.625  0.625  0.625-   4 2.37   6 2.37   7 2.37   8 2.37
 
  LATTYP: Found a face centered cubic cell.
 ALAT       =    10.9394268000
  
  Lattice vectors:
  
 A1 = (   5.4697134000,   5.4697134000,   0.0000000000)
 A2 = (   0.0000000000,   5.4697134000,   5.4697134000)
 A3 = (   5.4697134000,   0.0000000000,   5.4697134000)


Analysis of symmetry for initial positions (statically):
=====================================================================
 Subroutine PRICEL returns following result:
 
  LATTYP: Found a face centered cubic cell.
 ALAT       =     5.4697134000
  
  Lattice vectors:
  
 A1 = (   2.7348567000,   2.7348567000,   0.0000000000)
 A2 = (   0.0000000000,   2.7348567000,   2.7348567000)
 A3 = (   2.7348567000,   0.0000000000,   2.7348567000)
 
   8 primitive cells build up your supercell.
 

 Routine SETGRP: Setting up the symmetry group for a 
 face centered cubic supercell.


 Subroutine GETGRP returns: Found 48 space group operations
 (whereof 24 operations were pure point group operations)
 out of a pool of 48 trial point group operations.


The static configuration has the point symmetry T_d .
 The point group associated with its full space group is O_h .


Analysis of symmetry for dynamics (positions and initial velocities):
=====================================================================
 Subroutine PRICEL returns following result:
 
  LATTYP: Found a face centered cubic cell.
 ALAT       =     5.4697134000
  
  Lattice vectors:
  
 A1 = (   2.7348567000,   2.7348567000,   0.0000000000)
 A2 = (   0.0000000000,   2.7348567000,   2.7348567000)
 A3 = (   2.7348567000,   0.0000000000,   2.7348567000)
 
   8 primitive cells build up your supercell.
 

 Routine SETGRP: Setting up the symmetry group for a 
 face centered cubic supercell.


 Subroutine GETGRP returns: Found 48 space group operations
 (whereof 24 operations were pure point group operations)
 out of a pool of 48 trial point group operations.


The dynamic configuration has the point symmetry T_d .
 The point group associated with its full space group is O_h .


 Subroutine INISYM returns: Found 48 space group operations
 (whereof 24 operations are pure point group operations),
 and found     8 'primitive' translations


----------------------------------------------------------------------------------------

                                     Primitive cell                                     

  volume of cell :      40.9104

  direct lattice vectors                    reciprocal lattice vectors
     2.734856700  2.734856700  0.000000000     0.182824936  0.182824936 -0.182824936
     0.000000000  2.734856700  2.734856700    -0.182824936  0.182824936  0.182824936
     2.734856700  0.000000000  2.734856700     0.182824936 -0.182824936  0.182824936

  length of vectors
     3.867671436  3.867671436  3.867671436     0.316662077  0.316662077  0.316662077

  position of ions in fractional coordinates (direct lattice)
     0.000000000  0.000000000  0.000000000
     0.250000000  0.250000000  0.250000000

  ion indices of the primitive-cell ions
   primitive index   ion index
                 1           1
                 2           9

----------------------------------------------------------------------------------------

 
 
 KPOINTS: Automatic mesh                          

Automatic generation of k-mesh.
 Grid dimensions read from file:
 generate k-points for:    1    1    1

 Generating k-lattice:

  Cartesian coordinates                     Fractional coordinates (reciprocal lattice)
     0.091412468  0.091412468 -0.091412468     1.000000000  0.000000000  0.000000000
    -0.091412468  0.091412468  0.091412468     0.000000000  1.000000000 -0.000000000
     0.091412468 -0.091412468  0.091412468    -0.000000000 -0.000000000  1.000000000

  Length of vectors
     0.158331039  0.158331039  0.158331039

  Shift w.r.t. Gamma in fractional coordinates (k-lattice)
     0.000000000  0.000000000  0.000000000

 
 Subroutine IBZKPT returns following result:
 ===========================================
 
 Found      1 irreducible k-points:
 
 Following reciprocal coordinates:
            Coordinates               Weight
  0.000000  0.000000  0.000000      1.000000
 
 Following cartesian coordinates:
            Coordinates               Weight
  0.000000  0.000000  0.000000      1.000000
 


--------------------------------------------------------------------------------------------------------




 Dimension of arrays:
   k-points           NKPTS =      1   k-points in BZ     NKDIM =      1   number of bands    NBANDS=    384
   number of dos      NEDOS =    301   number of ions     NIONS =     16
   non local maximal  LDIM  =      6   non local SUM 2l+1 LMDIM =     18
   total plane-waves  NPLWV =  64000
   max r-space proj   IRMAX =      1   max aug-charges    IRDMAX=   9797
   dimension x,y,z NGX =    40 NGY =   40 NGZ =   40
   dimension x,y,z NGXF=    80 NGYF=   80 NGZF=   80
   support grid    NGXF=    80 NGYF=   80 NGZF=   80
   ions per type =              16
   NGX,Y,Z   is equivalent  to a cutoff of   8.60,  8.60,  8.60 a.u.
   NGXF,Y,Z  is equivalent  to a cutoff of  17.19, 17.19, 17.19 a.u.

 SYSTEM =  unknown system                          
 POSCAR =  cd:                                     

 Startparameter for this run:
   NWRITE =      2    write-flag & timer
   PREC   = normal    normal or accurate (medium, high low for compatibility)
   ISTART =      0    job   : 0-new  1-cont  2-samecut
   ICHARG =      2    charge: 1-file 2-atom 10-const
   ISPIN  =      1    spin polarized calculation?
   LNONCOLLINEAR =      F non collinear calculations
   LSORBIT =      F    spin-orbit coupling
   INIWAV =      1    electr: 0-lowe 1-rand  2-diag
   LASPH  =      F    aspherical Exc in radial PAW
 Electronic Relaxation 1
   ENCUT  =  400.0 eV  29.40 Ry    5.42 a.u.  12.61 12.61 12.61*2*pi/ulx,y,z
   ENINI  =  400.0     initial cutoff
   ENAUG  =  413.0 eV  augmentation charge cutoff
   NELM   =     60;   NELMIN=  2; NELMDL= -5     # of ELM steps 
   EDIFF  = 0.1E-05   stopping-criterion for ELM
   LREAL  =      F    real-space projection
   NLSPLINE    = F    spline interpolate recip. space projectors
   LCOMPAT=      F    compatible to vasp.4.4
   GGA_COMPAT  = T    GGA compatible to vasp.4.4-vasp.4.6
   LMAXPAW     = -100 max onsite density
   LMAXMIX     =    2 max onsite mixed and CHGCAR
   VOSKOWN=      0    Vosko Wilk Nusair interpolation
   ROPT   =    0.00000
 Ionic relaxation
   EDIFFG = 0.1E-04   stopping-criterion for IOM
   NSW    =      0    number of steps for IOM
   NBLOCK =      1;   KBLOCK =      1    inner block; outer block 
   IBRION =     -1    ionic relax: 0-MD 1-quasi-New 2-CG
   NFREE  =      0    steps in history (QN), initial steepest desc. (CG)
   ISIF   =      2    stress and relaxation
   IWAVPR =     10    prediction:  0-non 1-charg 2-wave 3-comb
   ISYM   =      2    0-nonsym 1-usesym 2-fastsym
   LCORR  =      T    Harris-Foulkes like correction to forces

   POTIM  = 0.5000    time-step for ionic-motion
   TEIN   =    0.0    initial temperature
   TEBEG  =    0.0;   TEEND  =   0.0 temperature during run
   SMASS  =  -3.00    Nose mass-parameter (am)
   estimated Nose-frequenzy (Omega)   =  0.10E-29 period in steps = 0.13E+47 mass=  -0.137E-26a.u.
   SCALEE = 1.0000    scale energy and forces
   NPACO  =    256;   APACO  = 10.0  distance and # of slots for P.C.
   PSTRESS=    0.0 pullay stress

  Mass of Ions in am
   POMASS =  28.09
  Ionic Valenz
   ZVAL   =   4.00
  Atomic Wigner-Seitz radii
   RWIGS  =  -1.00
  virtual crystal weights 
   VCA    =   1.00
   NELECT =      64.0000    total number of electrons
   NUPDOWN=      -1.0000    fix difference up-down

 DOS related values:
   EMIN   =  10.00;   EMAX   =-10.00  energy-range for DOS
   EFERMI =   0.00
   ISMEAR =     1;   SIGMA  =   0.00  broadening in eV -4-tet -1-fermi 0-gaus

 Electronic relaxation 2 (details)
   IALGO  =     38    algorithm
   LDIAG  =      T    sub-space diagonalisation (order eigenvalues)
   LSUBROT=      F    optimize rotation matrix (better conditioning)
   TURBO    =      0    0=normal 1=particle mesh
   IRESTART =      0    0=no restart 2=restart with 2 vectors
   NREBOOT  =      0    no. of reboots
   NMIN     =      0    reboot dimension
   EREF     =   0.00    reference energy to select bands
   IMIX   =      4    mixing-type and parameters
     AMIX     =   0.40;   BMIX     =  1.00
     AMIX_MAG =   1.60;   BMIX_MAG =  1.00
     AMIN     =   0.10
     WC   =   100.;   INIMIX=   1;  MIXPRE=   1;  MAXMIX= -45

 Intra band minimization:
   WEIMIN = 0.0000     energy-eigenvalue tresh-hold
   EBREAK =  0.65E-09  absolut break condition
   DEPER  =   0.30     relativ break condition  

   TIME   =   0.40     timestep for ELM

  volume/ion in A,a.u.               =      20.46       138.04
  Fermi-wavevector in a.u.,A,eV,Ry     =   0.950226  1.795667 12.285102  0.902929
  Thomas-Fermi vector in A             =   2.078583
 
 Write flags
   LWAVE        =      T    write WAVECAR
   LDOWNSAMPLE  =      F    k-point downsampling of WAVECAR
   LCHARG       =      T    write CHGCAR
   LVTOT        =      F    write LOCPOT, total local potential
   LVHAR        =      F    write LOCPOT, Hartree potential only
   LELF         =      F    write electronic localiz. function (ELF)
   LORBIT       =      0    0 simple, 1 ext, 2 COOP (PROOUT), +10 PAW based schemes


 Dipole corrections
   LMONO  =      F    monopole corrections only (constant potential shift)
   LDIPOL =      F    correct potential (dipole corrections)
   IDIPOL =      0    1-x, 2-y, 3-z, 4-all directions 
   EPSILON=  1.0000000 bulk dielectric constant

 Exchange correlation treatment:
   GGA     =    --    GGA type
   LEXCH   =     8    internal setting for exchange type
   LIBXC   =     F    Libxc                    
   VOSKOWN =     0    Vosko Wilk Nusair interpolation
   LHFCALC =     F    Hartree Fock is set to
   LHFONE  =     F    Hartree Fock one center treatment
   AEXX    =    0.0000 exact exchange contribution

 Linear response parameters
   LEPSILON=     F    determine dielectric tensor
   LRPA    =     F    only Hartree local field effects (RPA)
   LNABLA  =     F    use nabla operator in PAW spheres
   LVEL    =     F    velocity operator in full k-point grid
   CSHIFT  =0.1000    complex shift for real part using Kramers Kronig
   OMEGAMAX=  -1.0    maximum frequency
   DEG_THRESHOLD= 0.2000000E-02 threshold for treating states as degnerate
   RTIME   =   -0.100 relaxation time in fs
  (WPLASMAI=    0.000 imaginary part of plasma frequency in eV, 0.658/RTIME)
   DFIELD  = 0.0000000 0.0000000 0.0000000 field for delta impulse in time
 
  Optional k-point grid parameters
   LKPOINTS_OPT  =     F    use optional k-point grid
   KPOINTS_OPT_MODE=     1    mode for optional k-point grid
 
 Orbital magnetization related:
   ORBITALMAG=     F  switch on orbital magnetization
   LCHIMAG   =     F  perturbation theory with respect to B field
   DQ        =  0.001000  dq finite difference perturbation B field
   LLRAUG    =     F  two centre corrections for induced B field



--------------------------------------------------------------------------------------------------------


 Static calculation
 charge density and potential will be updated during run
 non-spin polarized calculation
 Variant of blocked Davidson
 Davidson routine will perform the subspace rotation
 perform sub-space diagonalisation
    after iterative eigenvector-optimisation
 modified Broyden-mixing scheme, WC =      100.0
 initial mixing is a Kerker type mixing with AMIX =  0.4000 and BMIX =      1.0000
 Hartree-type preconditioning will be used
 using additional bands          352
 reciprocal scheme for non local part
 use partial core corrections
 calculate Harris-corrections to forces 
   (improved forces if not selfconsistent)
 use gradient corrections 
 use of overlap-Matrix (Vanderbilt PP)
 Methfessel and Paxton  Order N= 1 SIGMA  =   0.00


--------------------------------------------------------------------------------------------------------


  energy-cutoff  :      400.00
  volume of cell :      327.28
      direct lattice vectors                 reciprocal lattice vectors
     5.469713400  5.469713400  0.000000000     0.091412468  0.091412468 -0.091412468
     0.000000000  5.469713400  5.469713400    -0.091412468  0.091412468  0.091412468
     5.469713400  0.000000000  5.469713400     0.091412468 -0.091412468  0.091412468

  length of vectors
     7.735342873  7.735342873  7.735342873     0.158331039  0.158331039  0.158331039


 
 k-points in units of 2pi/SCALE and weight: Automatic mesh                          
   0.00000000  0.00000000  0.00000000       1.000
 
 k-points in reciprocal lattice and weights: Automatic mesh                          
   0.00000000  0.00000000  0.00000000       1.000
 
 position of ions in fractional coordinates (direct lattice) 
   0.00000000  0.00000000  0.00000000
   0.50000000  0.00000000  0.00000000
   0.00000000  0.50000000  0.00000000
   0.50000000  0.50000000  0.00000000
   0.00000000  0.00000000  0.50000000
   0.50000000  0.00000000  0.50000000
   0.00000000  0.50000000  0.50000000
   0.50000000  0.50000000  0.50000000
   0.12500000  0.12500000  0.12500000
   0.62500000  0.12500000  0.12500000
   0.12500000  0.62500000  0.12500000
   0.62500000  0.62500000  0.12500000
   0.12500000  0.12500000  0.62500000
   0.62500000  0.12500000  0.62500000
   0.12500000  0.62500000  0.62500000
   0.62500000  0.62500000  0.62500000
 
 position of ions in cartesian coordinates  (Angst):
   0.00000000  0.00000000  0.00000000
   2.73485670  2.73485670  0.00000000
   0.00000000  2.73485670  2.73485670
   2.73485670  5.46971340  2.73485670
   2.73485670  0.00000000  2.73485670
   5.46971340  2.73485670  2.73485670
   2.73485670  2.73485670  5.46971340
   5.46971340  5.46971340  5.46971340
   1.36742835  1.36742835  1.36742835
   4.10228505  4.10228505  1.36742835
   1.36742835  4.10228505  4.10228505
   4.10228505  6.83714175  4.10228505
   4.10228505  1.36742835  4.10228505
   6.83714175  4.10228505  4.10228505
   4.10228505  4.10228505  6.83714175
   6.83714175  6.83714175  6.83714175
 


--------------------------------------------------------------------------------------------------------


 use serial FFT for orbitals x direction half grid
 k-point   1 :   0.0000 0.0000 0.0000  plane waves:    2981

 maximum and minimum number of plane-waves per node :      2981     2981

 maximum number of plane-waves:      2981
 maximum index in each direction: 
   IXMAX=   12   IYMAX=   12   IZMAX=   12
   IXMIN=    0   IYMIN=  -10   IZMIN=  -10


 serial   3D FFT for wavefunctions
 parallel 3D FFT for charge:
    minimum data exchange during FFTs selected (reduces bandwidth)


 total amount of memory used by VASP MPI-rank0    34859. kBytes
=======================================================================

   base      :      30000. kBytes
   nonl-proj :       1228. kBytes
   fftplans  :        558. kBytes
   grid      :       2897. kBytes
   one-center:        124. kBytes
   wavefun   :         52. kBytes
 
     INWAV:  cpu time      0.0000: real time      0.0000
 Broyden mixing: mesh for mixing (old mesh)
   NGX = 25   NGY = 25   NGZ = 25
  (NGX  = 80   NGY  = 80   NGZ  = 80)
  gives a total of  15625 points

 initial charge density was supplied:
 charge density of overlapping atoms calculated
 number of electron      64.0000000 magnetization 
 keeping initial charge density in first step


--------------------------------------------------------------------------------------------------------


 Maximum index for augmentation-charges          499 (set IRDMAX)


--------------------------------------------------------------------------------------------------------


 First call to EWALD:  gamma=   0.257
 Maximum number of real-space cells 3x 3x 3
 Maximum number of reciprocal cells 3x 3x 3

    FEWALD:  cpu time      0.0026: real time      0.0026


--------------------------------------- Iteration      1(   1)  ---------------------------------------


    POTLOK:  cpu time      0.2107: real time      0.2350
    SETDIJ:  cpu time      0.0517: real time      0.0521
     EDDAV:  cpu time      5.0013: real time      5.0153
       DOS:  cpu time      0.0017: real time      0.0021
    --------------------------------------------
      LOOP:  cpu time      5.2654: real time      5.3046

 eigenvalue-minimisations  :  1152
 total energy-change (2. order) :-0.5049842E+02  (-0.3022118E+04)
 number of electron      64.0000000 magnetization 
 augmentation part       64.0000000 magnetization 

 Free energy of the ion-electron system (eV)
  ---------------------------------------------------
  alpha Z        PSCENC =        47.65718222
  Ewald energy   TEWEN  =     -1815.23227814
  -Hartree energ DENC   =       -91.22881067
  -exchange      EXHF   =         0.00000000
  -V(xc)+E(xc)   XCENC  =      -151.73534731
  PAW double counting   =      1414.16753453    -1128.48828302
  entropy T*S    EENTRO =         0.00000000
  eigenvalues    EBANDS =        25.30964573
  atomic energy  EATOM  =      1649.05193965
  Solvation  Ediel_sol  =         0.00000000
  ---------------------------------------------------
  free energy    TOTEN  =       -50.49841701 eV

  energy without entropy =      -50.49841701  energy(sigma->0) =      -50.49841701


--------------------------------------------------------------------------------------------------------




--------------------------------------- Iteration      1(   2)  ---------------------------------------


     EDDAV:  cpu time      5.2232: real time      5.2397
       DOS:  cpu time      0.0086: real time      0.0087
    --------------------------------------------
      LOOP:  cpu time      5.2319: real time      5.2483

 eigenvalue-minimisations  :  1152
 total energy-change (2. order) :-0.1897941E+02  (-0.1897941E+02)
 number of electron      64.0000000 magnetization 
 augmentation part       64.0000000 magnetization 

 Free energy of the ion-electron system (eV)
  ---------------------------------------------------
  alpha Z        PSCENC =        47.65718222
  Ewald energy   TEWEN  =     -1815.23227814
  -Hartree energ DENC   =       -91.22881067
  -exchange      EXHF   =         0.00000000
  -V(xc)+E(xc)   XCENC  =      -151.73534731
  PAW double counting   =      1414.16753453    -1128.48828302
  entropy T*S    EENTRO =         0.00000000
  eigenvalues    EBANDS =         6.33023136
  atomic energy  EATOM  =      1649.05193965
  Solvation  Ediel_sol  =         0.00000000
  ---------------------------------------------------
  free energy    TOTEN  =       -69.47783139 eV

  energy without entropy =      -69.47783139  energy(sigma->0) =      -69.47783139


--------------------------------------------------------------------------------------------------------




--------------------------------------- Iteration      1(   3)  ---------------------------------------


     EDDAV:  cpu time      3.4045: real time      3.4138
       DOS:  cpu time      0.0011: real time      0.0011
    --------------------------------------------
      LOOP:  cpu time      3.4056: real time      3.4149

 eigenvalue-minimisations  :   768
 total energy-change (2. order) :-0.6414191E-02  (-0.6414191E-02)
 number of electron      64.0000000 magnetization 
 augmentation part       64.0000000 magnetization 

 Free energy of the ion-electron system (eV)
  ---------------------------------------------------
  alpha Z        PSCENC =        47.65718222
  Ewald energy   TEWEN  =     -1815.23227814
  -Hartree energ DENC   =       -91.22881067
  -exchange      EXHF   =         0.00000000
  -V(xc)+E(xc)   XCENC  =      -151.73534731
  PAW double counting   =      1414.16753453    -1128.48828302
  entropy T*S    EENTRO =         0.00000000
  eigenvalues    EBANDS =         6.32381716
  atomic energy  EATOM  =      1649.05193965
  Solvation  Ediel_sol  =         0.00000000
  ---------------------------------------------------
  free energy    TOTEN  =       -69.48424558 eV

  energy without entropy =      -69.48424558  energy(sigma->0) =      -69.48424558


--------------------------------------------------------------------------------------------------------




--------------------------------------- Iteration      1(   4)  ---------------------------------------


     EDDAV:  cpu time      7.9887: real time      8.0099
       DOS:  cpu time      0.0016: real time      0.0016
    --------------------------------------------
      LOOP:  cpu time      7.9903: real time      8.0115

 eigenvalue-minimisations  :  1536
 total energy-change (2. order) :-0.4205996E-05  (-0.4205998E-05)
 number of electron      64.0000000 magnetization 
 augmentation part       64.0000000 magnetization 

 Free energy of the ion-electron system (eV)
  ---------------------------------------------------
  alpha Z        PSCENC =        47.65718222
  Ewald energy   TEWEN  =     -1815.23227814
  -Hartree energ DENC   =       -91.22881067
  -exchange      EXHF   =         0.00000000
  -V(xc)+E(xc)   XCENC  =      -151.73534731
  PAW double counting   =      1414.16753453    -1128.48828302
  entropy T*S    EENTRO =         0.00000000
  eigenvalues    EBANDS =         6.32381296
  atomic energy  EATOM  =      1649.05193965
  Solvation  Ediel_sol  =         0.00000000
  ---------------------------------------------------
  free energy    TOTEN  =       -69.48424978 eV

  energy without entropy =      -69.48424978  energy(sigma->0) =      -69.48424978


--------------------------------------------------------------------------------------------------------




--------------------------------------- Iteration      1(   5)  ---------------------------------------


     EDDAV:  cpu time      3.4051: real time      3.4141
       DOS:  cpu time      0.0012: real time      0.0012
    CHARGE:  cpu time      0.0829: real time      0.0835
    MIXING:  cpu time      0.0106: real time      0.0110
    --------------------------------------------
      LOOP:  cpu time      3.4998: real time      3.5098

 eigenvalue-minimisations  :   768
 total energy-change (2. order) :-0.2410161E-10  (-0.1041656E-10)
 number of electron      63.9999973 magnetization 
 augmentation part       -3.6685630 magnetization 

 Broyden mixing:
  rms(total) = 0.11188E+01    rms(broyden)= 0.11188E+01
  rms(prec ) = 0.19221E+01
  weight for this iteration     100.00

 Free energy of the ion-electron system (eV)
  ---------------------------------------------------
  alpha Z        PSCENC =        47.65718222
  Ewald energy   TEWEN  =     -1815.23227814
  -Hartree energ DENC   =       -91.22881067
  -exchange      EXHF   =         0.00000000
  -V(xc)+E(xc)   XCENC  =      -151.73534731
  PAW double counting   =      1414.16753453    -1128.48828302
  entropy T*S    EENTRO =         0.00000000
  eigenvalues    EBANDS =         6.32381296
  atomic energy  EATOM  =      1649.05193965
  Solvation  Ediel_sol  =         0.00000000
  ---------------------------------------------------
  free energy    TOTEN  =       -69.48424978 eV

  energy without entropy =      -69.48424978  energy(sigma->0) =      -69.48424978


--------------------------------------------------------------------------------------------------------




--------------------------------------- Iteration      1(   6)  ---------------------------------------


    POTLOK:  cpu time      0.2046: real time      0.2054
    SETDIJ:  cpu time      0.0927: real time      0.0929
     EDDAV:  cpu time      8.6865: real time      8.7094
       DOS:  cpu time      0.0009: real time      0.0009
    CHARGE:  cpu time      0.1606: real time      0.1613
    MIXING:  cpu time      0.0089: real time      0.0091
    --------------------------------------------
      LOOP:  cpu time      9.1542: real time      9.1789

 eigenvalue-minimisations  :  1536
 total energy-change (2. order) : 0.1993543E+01  (-0.1162734E+00)
 number of electron      63.9999974 magnetization 
 augmentation part       -3.6032597 magnetization 

 Broyden mixing:
  rms(total) = 0.66740E+00    rms(broyden)= 0.66740E+00
  rms(prec ) = 0.11466E+01
  weight for this iteration     100.00

 eigenvalues of (default mixing * dielectric matrix)
  average eigenvalue GAMMA=   2.4517
  2.4517

 Free energy of the ion-electron system (eV)
  ---------------------------------------------------
  alpha Z        PSCENC =        47.65718222
  Ewald energy   TEWEN  =     -1815.23227814
  -Hartree energ DENC   =      -108.60342851
  -exchange      EXHF   =         0.00000000
  -V(xc)+E(xc)   XCENC  =      -149.12182965
  PAW double counting   =      1726.08513115    -1441.63018684
  entropy T*S    EENTRO =         0.00000000
  eigenvalues    EBANDS =        24.30276297
  atomic energy  EATOM  =      1649.05193965
  Solvation  Ediel_sol  =         0.00000000
  ---------------------------------------------------
  free energy    TOTEN  =       -67.49070714 eV

  energy without entropy =      -67.49070714  energy(sigma->0) =      -67.49070714


--------------------------------------------------------------------------------------------------------




--------------------------------------- Iteration      1(   7)  ---------------------------------------


    POTLOK:  cpu time      0.2088: real time      0.2111
    SETDIJ:  cpu time      0.0954: real time      0.0956
     EDDAV:  cpu time      5.1189: real time      5.1325
       DOS:  cpu time      0.0011: real time      0.0011
    CHARGE:  cpu time      0.0455: real time      0.0457
    MIXING:  cpu time      0.0093: real time      0.0093
    --------------------------------------------
      LOOP:  cpu time      5.4790: real time      5.4953

 eigenvalue-minimisations  :  1152
 total energy-change (2. order) : 0.8785735E+00  (-0.2248812E+00)
 number of electron      63.9999975 magnetization 
 augmentation part       -3.5214631 magnetization 

 Broyden mixing:
  rms(total) = 0.62252E-01    rms(broyden)= 0.62251E-01
  rms(prec ) = 0.98066E-01
  weight for this iteration     100.00

 eigenvalues of (default mixing * dielectric matrix)
  average eigenvalue GAMMA=   2.4589
  2.4589  2.4589

 Free energy of the ion-electron system (eV)
  ---------------------------------------------------
  alpha Z        PSCENC =        47.65718222
  Ewald energy   TEWEN  =     -1815.23227814
  -Hartree energ DENC   =      -138.80175400
  -exchange      EXHF   =         0.00000000
  -V(xc)+E(xc)   XCENC  =      -144.46156011
  PAW double counting   =      2214.99662815    -1932.27871141
  entropy T*S    EENTRO =         0.00000000
  eigenvalues    EBANDS =        52.45641996
  atomic energy  EATOM  =      1649.05193965
  Solvation  Ediel_sol  =         0.00000000
  ---------------------------------------------------
  free energy    TOTEN  =       -66.61213368 eV

  energy without entropy =      -66.61213368  energy(sigma->0) =      -66.61213368


--------------------------------------------------------------------------------------------------------




--------------------------------------- Iteration      1(   8)  ---------------------------------------


    POTLOK:  cpu time      0.2037: real time      0.2042
    SETDIJ:  cpu time      0.0109: real time      0.0110
     EDDAV:  cpu time      5.2273: real time      5.2449
       DOS:  cpu time      0.0009: real time      0.0009
    CHARGE:  cpu time      0.0458: real time      0.0459
    MIXING:  cpu time      0.0092: real time      0.0092
    --------------------------------------------
      LOOP:  cpu time      5.4978: real time      5.5161

 eigenvalue-minimisations  :  1152
 total energy-change (2. order) :-0.4788177E-01  (-0.5189129E-02)
 number of electron      63.9999974 magnetization 
 augmentation part       -3.5283786 magnetization 

 Broyden mixing:
  rms(total) = 0.11359E-01    rms(broyden)= 0.11359E-01
  rms(prec ) = 0.21565E-01
  weight for this iteration     100.00

 eigenvalues of (default mixing * dielectric matrix)
  average eigenvalue GAMMA=   2.1432
  1.2764  2.8705  2.2825

 Free energy of the ion-electron system (eV)
  ---------------------------------------------------
  alpha Z        PSCENC =        47.65718222
  Ewald energy   TEWEN  =     -1815.23227814
  -Hartree energ DENC   =      -138.99679309
  -exchange      EXHF   =         0.00000000
  -V(xc)+E(xc)   XCENC  =      -144.28019246
  PAW double counting   =      2166.33211318    -1883.40573149
  entropy T*S    EENTRO =         0.00000000
  eigenvalues    EBANDS =        52.21374467
  atomic energy  EATOM  =      1649.05193965
  Solvation  Ediel_sol  =         0.00000000
  ---------------------------------------------------
  free energy    TOTEN  =       -66.66001545 eV

  energy without entropy =      -66.66001545  energy(sigma->0) =      -66.66001545


--------------------------------------------------------------------------------------------------------




--------------------------------------- Iteration      1(   9)  ---------------------------------------


    POTLOK:  cpu time      0.2116: real time      0.2121
    SETDIJ:  cpu time      0.0111: real time      0.0111
     EDDAV:  cpu time      4.9460: real time      4.9592
       DOS:  cpu time      0.0075: real time      0.0075
    CHARGE:  cpu time      0.0818: real time      0.0820
    MIXING:  cpu time      0.0087: real time      0.0088
    --------------------------------------------
      LOOP:  cpu time      5.2667: real time      5.2807

 eigenvalue-minimisations  :  1152
 total energy-change (2. order) :-0.4115305E-02  (-0.3373656E-03)
 number of electron      63.9999974 magnetization 
 augmentation part       -3.5283859 magnetization 

 Broyden mixing:
  rms(total) = 0.52741E-02    rms(broyden)= 0.52741E-02
  rms(prec ) = 0.84399E-02
  weight for this iteration     100.00

 eigenvalues of (default mixing * dielectric matrix)
  average eigenvalue GAMMA=   2.3143
  1.0098  3.3430  2.2724  2.6321

 Free energy of the ion-electron system (eV)
  ---------------------------------------------------
  alpha Z        PSCENC =        47.65718222
  Ewald energy   TEWEN  =     -1815.23227814
  -Hartree energ DENC   =      -139.55180267
  -exchange      EXHF   =         0.00000000
  -V(xc)+E(xc)   XCENC  =      -144.18772850
  PAW double counting   =      2164.38904770    -1881.45837335
  entropy T*S    EENTRO =         0.00000000
  eigenvalues    EBANDS =        52.66788233
  atomic energy  EATOM  =      1649.05193965
  Solvation  Ediel_sol  =         0.00000000
  ---------------------------------------------------
  free energy    TOTEN  =       -66.66413075 eV

  energy without entropy =      -66.66413075  energy(sigma->0) =      -66.66413075


--------------------------------------------------------------------------------------------------------




--------------------------------------- Iteration      1(  10)  ---------------------------------------


    POTLOK:  cpu time      0.2149: real time      0.2168
    SETDIJ:  cpu time      0.0123: real time      0.0123
     EDDAV:  cpu time      4.9755: real time      4.9888
       DOS:  cpu time      0.0013: real time      0.0013
    CHARGE:  cpu time      0.0425: real time      0.0426
    MIXING:  cpu time      0.0097: real time      0.0097
    --------------------------------------------
      LOOP:  cpu time      5.2563: real time      5.2716

 eigenvalue-minimisations  :  1152
 total energy-change (2. order) :-0.4657252E-03  (-0.7812082E-04)
 number of electron      63.9999974 magnetization 
 augmentation part       -3.5280061 magnetization 

 Broyden mixing:
  rms(total) = 0.39762E-03    rms(broyden)= 0.39761E-03
  rms(prec ) = 0.69663E-03
  weight for this iteration     100.00

 eigenvalues of (default mixing * dielectric matrix)
  average eigenvalue GAMMA=   2.1561
  0.9888  3.1599  2.6984  2.1278  1.8056

 Free energy of the ion-electron system (eV)
  ---------------------------------------------------
  alpha Z        PSCENC =        47.65718222
  Ewald energy   TEWEN  =     -1815.23227814
  -Hartree energ DENC   =      -139.71121216
  -exchange      EXHF   =         0.00000000
  -V(xc)+E(xc)   XCENC  =      -144.18829785
  PAW double counting   =      2163.08727465    -1880.16340037
  entropy T*S    EENTRO =         0.00000000
  eigenvalues    EBANDS =        52.83419550
  atomic energy  EATOM  =      1649.05193965
  Solvation  Ediel_sol  =         0.00000000
  ---------------------------------------------------
  free energy    TOTEN  =       -66.66459648 eV

  energy without entropy =      -66.66459648  energy(sigma->0) =      -66.66459648


--------------------------------------------------------------------------------------------------------




--------------------------------------- Iteration      1(  11)  ---------------------------------------


    POTLOK:  cpu time      0.1971: real time      0.1976
    SETDIJ:  cpu time      0.0131: real time      0.0132
     EDDAV:  cpu time      3.1511: real time      3.1595
       DOS:  cpu time      0.0015: real time      0.0015
    CHARGE:  cpu time      0.1209: real time      0.1214
    MIXING:  cpu time      0.0095: real time      0.0095
    --------------------------------------------
      LOOP:  cpu time      3.4933: real time      3.5027

 eigenvalue-minimisations  :   768
 total energy-change (2. order) : 0.4675638E-05  (-0.2968074E-06)
 number of electron      63.9999974 magnetization 
 augmentation part       -3.5280664 magnetization 

 Broyden mixing:
  rms(total) = 0.17547E-03    rms(broyden)= 0.17547E-03
  rms(prec ) = 0.22084E-03
  weight for this iteration     100.00

 eigenvalues of (default mixing * dielectric matrix)
  average eigenvalue GAMMA=   2.1226
  3.2325  2.7606  2.4990  2.2548  0.9942  0.9942

 Free energy of the ion-electron system (eV)
  ---------------------------------------------------
  alpha Z        PSCENC =        47.65718222
  Ewald energy   TEWEN  =     -1815.23227814
  -Hartree energ DENC   =      -139.68721583
  -exchange      EXHF   =         0.00000000
  -V(xc)+E(xc)   XCENC  =      -144.19033677
  PAW double counting   =      2163.01205218    -1880.08597825
  entropy T*S    EENTRO =         0.00000000
  eigenvalues    EBANDS =        52.81004313
  atomic energy  EATOM  =      1649.05193965
  Solvation  Ediel_sol  =         0.00000000
  ---------------------------------------------------
  free energy    TOTEN  =       -66.66459180 eV

  energy without entropy =      -66.66459180  energy(sigma->0) =      -66.66459180


--------------------------------------------------------------------------------------------------------




--------------------------------------- Iteration      1(  12)  ---------------------------------------


    POTLOK:  cpu time      0.1908: real time      0.1912
    SETDIJ:  cpu time      0.0516: real time      0.0518
     EDDAV:  cpu time      8.1623: real time      8.1841
       DOS:  cpu time      0.0009: real time      0.0009
    CHARGE:  cpu time      0.1199: real time      0.1202
    MIXING:  cpu time      0.0095: real time      0.0095
    --------------------------------------------
      LOOP:  cpu time      8.5350: real time      8.5576

 eigenvalue-minimisations  :  1536
 total energy-change (2. order) : 0.1258266E-05  (-0.8500058E-07)
 number of electron      63.9999974 magnetization 
 augmentation part       -3.5280721 magnetization 

 Broyden mixing:
  rms(total) = 0.11088E-04    rms(broyden)= 0.11085E-04
  rms(prec ) = 0.15948E-04
  weight for this iteration     100.00

 eigenvalues of (default mixing * dielectric matrix)
  average eigenvalue GAMMA=   1.9612
  3.2501  2.7488  2.4653  2.2357  0.9682  1.0300  1.0300

 Free energy of the ion-electron system (eV)
  ---------------------------------------------------
  alpha Z        PSCENC =        47.65718222
  Ewald energy   TEWEN  =     -1815.23227814
  -Hartree energ DENC   =      -139.68946165
  -exchange      EXHF   =         0.00000000
  -V(xc)+E(xc)   XCENC  =      -144.18982011
  PAW double counting   =      2163.24066968    -1880.31362276
  entropy T*S    EENTRO =         0.00000000
  eigenvalues    EBANDS =        52.81080055
  atomic energy  EATOM  =      1649.05193965
  Solvation  Ediel_sol  =         0.00000000
  ---------------------------------------------------
  free energy    TOTEN  =       -66.66459054 eV

  energy without entropy =      -66.66459054  energy(sigma->0) =      -66.66459054


--------------------------------------------------------------------------------------------------------




--------------------------------------- Iteration      1(  13)  ---------------------------------------


    POTLOK:  cpu time      0.1879: real time      0.1884
    SETDIJ:  cpu time      0.0123: real time      0.0123
     EDDAV:  cpu time      3.0449: real time      3.0530
       DOS:  cpu time      0.0085: real time      0.0085
    --------------------------------------------
      LOOP:  cpu time      3.2536: real time      3.2621

 eigenvalue-minimisations  :   768
 total energy-change (2. order) :-0.1670846E-06  (-0.1808496E-09)
 number of electron      63.9999974 magnetization 
 augmentation part       -3.5280721 magnetization 

 Free energy of the ion-electron system (eV)
  ---------------------------------------------------
  alpha Z        PSCENC =        47.65718222
  Ewald energy   TEWEN  =     -1815.23227814
  -Hartree energ DENC   =      -139.68986152
  -exchange      EXHF   =         0.00000000
  -V(xc)+E(xc)   XCENC  =      -144.18980694
  PAW double counting   =      2163.23772268    -1880.31076974
  entropy T*S    EENTRO =         0.00000000
  eigenvalues    EBANDS =        52.81128108
  atomic energy  EATOM  =      1649.05193965
  Solvation  Ediel_sol  =         0.00000000
  ---------------------------------------------------
  free energy    TOTEN  =       -66.66459071 eV

  energy without entropy =      -66.66459071  energy(sigma->0) =      -66.66459071


--------------------------------------------------------------------------------------------------------




 average (electrostatic) potential at core
  the test charge radii are     1.1243
  (the norm of the test charge is              1.0000)
       1 -66.8013       2 -66.8013       3 -66.8013       4 -66.8013       5 -66.8013
       6 -66.8013       7 -66.8013       8 -66.8013       9 -66.8013      10 -66.8013
      11 -66.8013      12 -66.8013      13 -66.8013      14 -66.8013      15 -66.8013
      16 -66.8013
 
 
 
 E-fermi :   5.6130     XC(G=0):  -9.1214     alpha+bet :-11.3646

 Fermi energy:         5.6129659771

 k-point     1 :       0.0000    0.0000    0.0000
  band No.  band energies     occupation 
      1      -6.3114      2.00000
      2      -4.0153      2.00000
      3      -4.0153      2.00000
      4      -4.0153      2.00000
      5      -4.0153      2.00000
      6      -2.2242      2.00000
      7      -2.2242      2.00000
      8      -2.2242      2.00000
      9      -2.2242      2.00000
     10      -2.2242      2.00000
     11      -2.2242      2.00000
     12      -1.3784      2.00000
     13      -1.3784      2.00000
     14      -1.3784      2.00000
     15      -1.3784      2.00000
     16       2.6976      2.00000
     17       2.6976      2.00000
     18       2.6976      2.00000
     19       2.6976      2.00000
     20       2.6976      2.00000
     21       2.6976      2.00000
     22       4.3480      2.00000
     23       4.3480      2.00000
     24       4.3480      2.00000
     25       4.3480      2.00000
     26       4.3480      2.00000
     27       4.3480      2.00000
     28       4.3480      2.00000
     29       4.3480      2.00000
     30       5.5559      2.00000
     31       5.5559      2.00000
     32       5.5559      2.00000
     33       6.2020      0.00000
     34       6.2020      0.00000
     35       6.2020      0.00000
     36       6.2020      0.00000
     37       6.2020      0.00000
     38       6.2020      0.00000
     39       6.9774      0.00000
     40       6.9774      0.00000
     41       6.9774      0.00000
     42       6.9774      0.00000
     43       7.9945      0.00000
     44       7.9945      0.00000
     45       7.9945      0.00000
     46       8.6985      0.00000
     47       8.7738      0.00000
     48       8.7738      0.00000
     49       8.7738      0.00000
     50       8.7738      0.00000
     51       8.7738      0.00000
     52       8.7738      0.00000
     53       8.7738      0.00000
     54       8.7738      0.00000
     55      13.1278      0.00000
     56      13.1278      0.00000
     57      13.1820      0.00000
     58      13.1820      0.00000
     59      13.1820      0.00000
     60      13.1820      0.00000
     61      13.4358      0.00000
     62      15.4315      0.00000
     63      15.4315      0.00000
     64      15.4315      0.00000
     65      15.4315      0.00000
     66      15.4315      0.00000
     67      15.4315      0.00000
     68      15.9592      0.00000
     69      15.9592      0.00000
     70      15.9592      0.00000
     71      15.9592      0.00000
     72      15.9592      0.00000
     73      15.9592      0.00000
     74      15.9592      0.00000
     75      15.9592      0.00000
     76      16.4323      0.00000
     77      16.4323      0.00000
     78      16.4323      0.00000
     79      16.4323      0.00000
     80      16.4323      0.00000
     81      16.4323      0.00000
     82      16.5829      0.00000
     83      16.5829      0.00000
     84      16.5829      0.00000
     85      16.6757      0.00000
     86      16.6757      0.00000
     87      16.6757      0.00000
     88      16.6757      0.00000
     89      16.6757      0.00000
     90      16.6757      0.00000
     91      16.6757      0.00000
     92      16.6757      0.00000
     93      16.7796      0.00000
     94      16.7796      0.00000
     95      16.7796      0.00000
     96      16.7796      0.00000
     97      17.8661      0.00000
     98      17.8661      0.00000
     99      17.8661      0.00000
    100      17.8661      0.00000
    101      17.8661      0.00000
    102      17.8661      0.00000
    103      18.2706      0.00000
    104      18.2706      0.00000
    105      18.2706      0.00000
    106      18.2706      0.00000
    107      18.3722      0.00000
    108      18.3722      0.00000
    109      18.3722      0.00000
    110      18.3722      0.00000
    111      18.3722      0.00000
    112      18.3722      0.00000
    113      20.8569      0.00000
    114      24.2201      0.00000
    115      24.2201      0.00000
    116      24.2201      0.00000
    117      24.2201      0.00000
    118      24.2201      0.00000
    119      24.2201      0.00000
    120      24.6949      0.00000
    121      24.6949      0.00000
    122      24.6949      0.00000
    123      24.6950      0.00000
    124      24.9875      0.00000
    125      24.9875      0.00000
    126      24.9875      0.00000
    127      24.9875      0.00000
    128      24.9875      0.00000
    129      24.9875      0.00000
    130      25.2175      0.00000
    131      25.2175      0.00000
    132      25.2175      0.00000
    133      25.2175      0.00000
    134      25.4011      0.00000
    135      25.4011      0.00000
    136      25.4011      0.00000
    137      25.4011      0.00000
    138      25.4011      0.00000
    139      25.4011      0.00000
    140      26.6742      0.00000
    141      26.6742      0.00000
    142      26.6742      0.00000
    143      26.6742      0.00000
    144      26.6742      0.00000
    145      26.6742      0.00000
    146      26.8821      0.00000
    147      26.8821      0.00000
    148      26.8821      0.00000
    149      26.8821      0.00000
    150      26.8821      0.00000
    151      26.8821      0.00000
    152      26.8821      0.00000
    153      26.8821      0.00000
    154      26.9861      0.00000
    155      26.9861      0.00000
    156      26.9861      0.00000
    157      26.9862      0.00000
    158      26.9862      0.00000
    159      26.9862      0.00000
    160      26.9862      0.00000
    161      26.9862      0.00000
    162      28.3417      0.00000
    163      28.3417      0.00000
    164      28.3418      0.00000
    165      29.3513      0.00000
    166      29.3513      0.00000
    167      30.6545      0.00000
    168      30.6545      0.00000
    169      30.6545      0.00000
    170      30.6546      0.00000
    171      30.6546      0.00000
    172      30.6546      0.00000
    173      30.9057      0.00000
    174      30.9057      0.00000
    175      30.9057      0.00000
    176      30.9804      0.00000
    177      30.9804      0.00000
    178      30.9804      0.00000
    179      30.9804      0.00000
    180      31.5417      0.00000
    181      31.5417      0.00000
    182      31.5417      0.00000
    183      31.5418      0.00000
    184      31.5418      0.00000
    185      31.5418      0.00000
    186      31.5418      0.00000
    187      31.5418      0.00000
    188      32.5518      0.00000
    189      32.5518      0.00000
    190      32.5518      0.00000
    191      32.5518      0.00000
    192      32.5518      0.00000
    193      32.5518      0.00000
    194      32.5518      0.00000
    195      32.5518      0.00000
    196      33.4799      0.00000
    197      33.4799      0.00000
    198      33.4799      0.00000
    199      33.4799      0.00000
    200      34.3390      0.00000
    201      34.3390      0.00000
    202      34.3390      0.00000
    203      34.5434      0.00000
    204      34.5434      0.00000
    205      34.5434      0.00000
    206      34.5434      0.00000
    207      34.5434      0.00000
    208      34.5434      0.00000
    209      36.1192      0.00000
    210      36.1192      0.00000
    211      36.1192      0.00000
    212      36.1192      0.00000
    213      37.4131      0.00000
    214      37.4131      0.00000
    215      37.4131      0.00000
    216      37.4131      0.00000
    217      37.4131      0.00000
    218      37.4132      0.00000
    219      37.4132      0.00000
    220      37.4132      0.00000
    221      37.8811      0.00000
    222      37.8811      0.00000
    223      37.8811      0.00000
    224      37.8812      0.00000
    225      37.8812      0.00000
    226      37.8812      0.00000
    227      37.8812      0.00000
    228      37.8812      0.00000
    229      38.8509      0.00000
    230      38.8509      0.00000
    231      38.8509      0.00000
    232      38.8509      0.00000
    233      39.1975      0.00000
    234      39.1975      0.00000
    235      39.1975      0.00000
    236      39.1975      0.00000
    237      39.1975      0.00000
    238      39.1975      0.00000
    239      39.3181      0.00000
    240      39.3181      0.00000
    241      39.3181      0.00000
    242      39.3181      0.00000
    243      39.3181      0.00000
    244      39.3181      0.00000
    245      39.7457      0.00000
    246      39.7457      0.00000
    247      39.7457      0.00000
    248      40.6474      0.00000
    249      40.6474      0.00000
    250      40.6474      0.00000
    251      40.6474      0.00000
    252      40.6474      0.00000
    253      40.6474      0.00000
    254      41.3808      0.00000
    255      41.3808      0.00000
    256      41.3808      0.00000
    257      41.3808      0.00000
    258      41.8440      0.00000
    259      41.8440      0.00000
    260      41.8440      0.00000
    261      41.8440      0.00000
    262      43.2223      0.00000
    263      43.2223      0.00000
    264      43.2223      0.00000
    265      43.2223      0.00000
    266      43.2223      0.00000
    267      43.2223      0.00000
    268      43.4311      0.00000
    269      43.4311      0.00000
    270      43.4639      0.00000
    271      44.5658      0.00000
    272      44.5658      0.00000
    273      44.5658      0.00000
    274      44.5658      0.00000
    275      44.5658      0.00000
    276      44.5658      0.00000
    277      45.3706      0.00000
    278      45.3706      0.00000
    279      45.5197      0.00000
    280      45.5197      0.00000
    281      45.5197      0.00000
    282      45.5198      0.00000
    283      45.5198      0.00000
    284      45.5198      0.00000
    285      45.6503      0.00000
    286      45.6503      0.00000
    287      45.6503      0.00000
    288      45.6504      0.00000
    289      45.6504      0.00000
    290      45.6504      0.00000
    291      45.6504      0.00000
    292      45.6504      0.00000
    293      46.7849      0.00000
    294      46.7849      0.00000
    295      46.7849      0.00000
    296      46.7850      0.00000
    297      46.7850      0.00000
    298      46.7850      0.00000
    299      47.1419      0.00000
    300      47.1419      0.00000
    301      47.1419      0.00000
    302      47.4910      0.00000
    303      47.4910      0.00000
    304      47.4910      0.00000
    305      47.4910      0.00000
    306      47.4910      0.00000
    307      47.4910      0.00000
    308      47.4910      0.00000
    309      47.4910      0.00000
    310      47.9360      0.00000
    311      47.9360      0.00000
    312      47.9360      0.00000
    313      47.9360      0.00000
    314      48.5212      0.00000
    315      48.5212      0.00000
    316      48.5212      0.00000
    317      48.5212      0.00000
    318      48.9132      0.00000
    319      48.9132      0.00000
    320      48.9132      0.00000
    321      49.5847      0.00000
    322      49.7230      0.00000
    323      49.7230      0.00000
    324      49.7230      0.00000
    325      49.7230      0.00000
    326      49.7230      0.00000
    327      49.7230      0.00000
    328      49.8514      0.00000
    329      49.8514      0.00000
    330      49.8514      0.00000
    331      50.0220      0.00000
    332      50.0220      0.00000
    333      50.0220      0.00000
    334      51.0523      0.00000
    335      51.0523      0.00000
    336      51.0524      0.00000
    337      51.0524      0.00000
    338      51.0524      0.00000
    339      51.0526      0.00000
    340      51.0526      0.00000
    341      51.0526      0.00000
    342      51.2534      0.00000
    343      51.2534      0.00000
    344      51.2534      0.00000
    345      53.0489      0.00000
    346      53.0489      0.00000
    347      53.0490      0.00000
    348      53.0490      0.00000
    349      53.0490      0.00000
    350      53.0491      0.00000
    351      53.0491      0.00000
    352      53.0491      0.00000
    353      53.5236      0.00000
    354      53.5236      0.00000
    355      53.5236      0.00000
    356      53.5236      0.00000
    357      53.5236      0.00000
    358      53.5236      0.00000
    359      53.8548      0.00000
    360      53.8548      0.00000
    361      53.8548      0.00000
    362      53.8549      0.00000
    363      55.0749      0.00000
    364      55.0749      0.00000
    365      55.0749      0.00000
    366      55.0749      0.00000
    367      55.0749      0.00000
    368      55.0749      0.00000
    369      55.4143      0.00000
    370      56.2804      0.00000
    371      56.2804      0.00000
    372      56.2804      0.00000
    373      56.6258      0.00000
    374      56.6258      0.00000
    375      56.6258      0.00000
    376      57.3269      0.00000
    377      57.3269      0.00000
    378      57.3269      0.00000
    379      57.3270      0.00000
    380      57.3270      0.00000
    381      57.3270      0.00000
    382      57.3270      0.00000
    383      57.3270      0.00000
    384      57.6262      0.00000


--------------------------------------------------------------------------------------------------------


 soft charge-density along one line, spin component           1
         0         1         2         3         4         5         6         7         8         9
 total charge-density along one line
 
 pseudopotential strength for first ion, spin component:           1
 17.049 -18.273  -0.000  -0.000  -0.000   0.000   0.000   0.000
-18.273  50.908   0.000   0.000   0.000  -0.000  -0.000  -0.000
 -0.000   0.000   3.854   0.000   0.000 -11.264  -0.000  -0.000
 -0.000   0.000   0.000   3.854   0.000  -0.000 -11.264  -0.000
 -0.000   0.000   0.000   0.000   3.854  -0.000  -0.000 -11.264
  0.000  -0.000 -11.264  -0.000  -0.000  35.879   0.000   0.000
  0.000  -0.000  -0.000 -11.264  -0.000   0.000  35.879   0.000
  0.000  -0.000  -0.000  -0.000 -11.264   0.000   0.000  35.879
  0.000   0.000  -0.000   0.001  -0.000   0.000  -0.003   0.000
  0.000   0.000  -0.000  -0.000   0.001   0.000   0.000  -0.003
  0.000   0.000  -0.000   0.000  -0.000   0.000  -0.000   0.000
  0.000   0.000   0.001  -0.000  -0.000  -0.003   0.000   0.000
  0.000   0.000  -0.000  -0.000   0.000   0.000   0.000  -0.000
 -0.000   0.000   0.000  -0.005   0.000  -0.000   0.014  -0.000
 -0.000   0.000   0.000   0.000  -0.005  -0.000  -0.000   0.014
 -0.000   0.000   0.000  -0.000   0.000  -0.000   0.000  -0.000
 -0.000   0.000  -0.005   0.000   0.000   0.014  -0.000  -0.000
 -0.000   0.000   0.000   0.000  -0.000  -0.000  -0.000   0.000
 total augmentation occupancy for first ion, spin component:           1
  1.364   0.020   0.000   0.000  -0.000   0.000   0.000   0.000  -0.000   0.000  -0.000  -0.000   0.000  -0.000  -0.000  -0.000
  0.020   0.000   0.000   0.000   0.000   0.000   0.000  -0.000   0.000  -0.000  -0.000  -0.000   0.000  -0.000  -0.000  -0.000
  0.000   0.000   1.306  -0.000   0.000   0.026  -0.000   0.000  -0.000   0.000   0.000   0.179  -0.000   0.000  -0.000  -0.000
  0.000   0.000  -0.000   1.306  -0.000  -0.000   0.026  -0.000   0.179  -0.000  -0.000   0.000   0.000  -0.000   0.000   0.000
 -0.000   0.000   0.000  -0.000   1.306   0.000  -0.000   0.026  -0.000   0.179   0.000   0.000   0.000   0.000  -0.000  -0.000
  0.000   0.000   0.026  -0.000   0.000   0.001  -0.000   0.000  -0.000   0.000   0.000   0.003  -0.000  -0.000   0.000   0.000
  0.000   0.000  -0.000   0.026  -0.000  -0.000   0.001  -0.000   0.003  -0.000  -0.000   0.000   0.000   0.000  -0.000  -0.000
  0.000  -0.000   0.000  -0.000   0.026   0.000  -0.000   0.001  -0.000   0.003   0.000   0.000   0.000  -0.000   0.000   0.000
 -0.000   0.000  -0.000   0.179  -0.000  -0.000   0.003  -0.000   0.029  -0.000  -0.000  -0.000   0.000  -0.000   0.000   0.000
  0.000  -0.000   0.000  -0.000   0.179   0.000  -0.000   0.003  -0.000   0.029   0.000   0.000   0.000   0.000  -0.000  -0.000
 -0.000  -0.000   0.000  -0.000   0.000   0.000  -0.000   0.000  -0.000   0.000   0.004   0.000   0.000   0.000  -0.000   0.000
 -0.000  -0.000   0.179   0.000   0.000   0.003   0.000   0.000  -0.000   0.000   0.000   0.029  -0.000   0.000  -0.000  -0.000
  0.000   0.000  -0.000   0.000   0.000  -0.000   0.000   0.000   0.000   0.000   0.000  -0.000   0.004  -0.000  -0.000   0.000
 -0.000  -0.000   0.000  -0.000   0.000  -0.000   0.000  -0.000  -0.000   0.000   0.000   0.000  -0.000   0.000  -0.000  -0.000
 -0.000  -0.000  -0.000   0.000  -0.000   0.000  -0.000   0.000   0.000  -0.000  -0.000  -0.000  -0.000  -0.000   0.000   0.000
 -0.000  -0.000  -0.000   0.000  -0.000   0.000  -0.000   0.000   0.000  -0.000   0.000  -0.000  -0.000  -0.000   0.000   0.000
  0.000  -0.000  -0.000  -0.000  -0.000   0.000   0.000   0.000   0.000  -0.000  -0.000  -0.000   0.000  -0.000   0.000   0.000
  0.000   0.000   0.000  -0.000  -0.000  -0.000   0.000   0.000  -0.000  -0.000   0.000   0.000   0.000   0.000   0.000   0.000


------------------------ aborting loop because EDIFF is reached ----------------------------------------


    CHARGE:  cpu time      0.0862: real time      0.0866
    FORLOC:  cpu time      0.0077: real time      0.0077
    FORNL :  cpu time      0.0131: real time      0.0132
    STRESS:  cpu time      0.1958: real time      0.1966
    FORCOR:  cpu time      0.1610: real time      0.1615
    FORHAR:  cpu time      0.0597: real time      0.0602
    MIXING:  cpu time      0.0018: real time      0.0018
    OFIELD:  cpu time      0.0000: real time      0.0001

  FORCE on cell =-STRESS in cart. coord.  units (eV):
  Direction    XX          YY          ZZ          XY          YZ          ZX
  --------------------------------------------------------------------------------------
  Alpha Z    47.65718    47.65718    47.65718
  Ewald    -605.07938  -605.07938  -605.07938     0.00000    -0.00000    -0.00000
  Hartree    46.56325    46.56325    46.56325     0.00000     0.00000     0.00000
  E(xc)    -203.46350  -203.46350  -203.46350    -0.00001    -0.00001    -0.00001
  Local    -224.90318  -224.90318  -224.90318     0.00005     0.00005     0.00005
  n-local   554.50270   554.50270   554.50270    -0.00000    -0.00000    -0.00000
  augment   -82.13238   -82.13238   -82.13238    -0.00007    -0.00007    -0.00007
  Kinetic   482.04713   482.04713   482.04713     0.00001     0.00001     0.00001
  Fock        0.00000     0.00000     0.00000     0.00000     0.00000     0.00000
  -------------------------------------------------------------------------------------
  Total      15.19183    15.19183    15.19183    -0.00000     0.00000    -0.00000
  in kB      74.36987    74.36987    74.36987    -0.00000     0.00000    -0.00000
  external pressure =       74.37 kB  Pullay stress =        0.00 kB


 VOLUME and BASIS-vectors are now :
 -----------------------------------------------------------------------------
  energy-cutoff  :      400.00
  volume of cell :      327.28
      direct lattice vectors                 reciprocal lattice vectors
     5.469713400  5.469713400  0.000000000     0.091412468  0.091412468 -0.091412468
     0.000000000  5.469713400  5.469713400    -0.091412468  0.091412468  0.091412468
     5.469713400  0.000000000  5.469713400     0.091412468 -0.091412468  0.091412468

  length of vectors
     7.735342873  7.735342873  7.735342873     0.158331039  0.158331039  0.158331039


 FORCES acting on ions
    electron-ion (+dipol)            ewald-force                    non-local-force                 convergence-correction
 -----------------------------------------------------------------------------------------------
   0.104E-05 0.111E-05 0.104E-05   -.242E-13 -.329E-13 0.202E-13   0.394E-21 -.126E-20 -.390E-21   -.299E-10 -.299E-10 -.299E-10
   0.104E-05 0.111E-05 0.104E-05   -.246E-13 -.320E-13 0.175E-13   -.170E-21 -.153E-20 0.164E-21   -.299E-10 -.300E-10 -.300E-10
   0.104E-05 0.111E-05 0.104E-05   -.280E-13 -.329E-13 0.207E-13   0.108E-20 -.156E-20 0.178E-23   -.300E-10 -.300E-10 -.299E-10
   0.104E-05 0.111E-05 0.104E-05   -.249E-13 -.320E-13 0.213E-13   0.120E-20 -.160E-20 0.714E-21   -.299E-10 -.299E-10 -.299E-10
   0.104E-05 0.111E-05 0.104E-05   -.235E-13 -.278E-13 0.207E-13   0.928E-21 -.121E-20 0.912E-21   -.300E-10 -.300E-10 -.299E-10
   0.104E-05 0.111E-05 0.104E-05   -.249E-13 -.320E-13 0.213E-13   0.142E-20 -.126E-20 0.595E-21   -.299E-10 -.299E-10 -.299E-10
   0.104E-05 0.111E-05 0.104E-05   -.249E-13 -.320E-13 0.213E-13   0.249E-21 -.138E-20 0.891E-21   -.300E-10 -.299E-10 -.299E-10
   0.104E-05 0.111E-05 0.104E-05   -.249E-13 -.320E-13 0.213E-13   0.214E-21 -.169E-20 0.310E-21   -.300E-10 -.299E-10 -.300E-10
   -.104E-05 -.111E-05 -.104E-05   0.246E-13 0.334E-13 -.188E-13   -.435E-21 0.123E-20 0.408E-21   0.300E-10 0.299E-10 0.299E-10
   -.104E-05 -.111E-05 -.104E-05   0.237E-13 0.317E-13 -.170E-13   0.169E-21 0.162E-20 -.125E-21   0.299E-10 0.299E-10 0.300E-10
   -.104E-05 -.111E-05 -.104E-05   0.284E-13 0.329E-13 -.204E-13   -.113E-20 0.155E-20 -.186E-21   0.300E-10 0.300E-10 0.299E-10
   -.104E-05 -.111E-05 -.104E-05   0.254E-13 0.326E-13 -.205E-13   -.118E-20 0.155E-20 -.887E-21   0.299E-10 0.299E-10 0.300E-10
   -.104E-05 -.111E-05 -.104E-05   0.228E-13 0.271E-13 -.214E-13   -.106E-20 0.126E-20 -.818E-21   0.299E-10 0.300E-10 0.299E-10
   -.104E-05 -.111E-05 -.104E-05   0.243E-13 0.319E-13 -.216E-13   -.150E-20 0.124E-20 -.587E-21   0.299E-10 0.299E-10 0.299E-10
   -.104E-05 -.111E-05 -.104E-05   0.256E-13 0.322E-13 -.217E-13   -.198E-21 0.141E-20 -.125E-20   0.299E-10 0.300E-10 0.299E-10
   -.104E-05 -.111E-05 -.104E-05   0.243E-13 0.314E-13 -.226E-13   -.229E-21 0.168E-20 -.402E-21   0.299E-10 0.299E-10 0.299E-10
 -----------------------------------------------------------------------------------------------
   -.325E-12 0.474E-12 0.291E-12   -.549E-15 -.119E-15 0.145E-15   -.251E-21 0.543E-22 -.644E-21   -.580E-13 -.378E-13 -.632E-13
 
 
 POSITION                                       TOTAL-FORCE (eV/Angst)
 -----------------------------------------------------------------------------------
      0.00000      0.00000      0.00000         0.000000     -0.000000      0.000000
      2.73486      2.73486      0.00000         0.000000      0.000000      0.000000
      0.00000      2.73486      2.73486         0.000000      0.000000      0.000000
      2.73486      5.46971      2.73486         0.000000      0.000000      0.000000
      2.73486      0.00000      2.73486         0.000000      0.000000      0.000000
      5.46971      2.73486      2.73486         0.000000      0.000000      0.000000
      2.73486      2.73486      5.46971        -0.000000      0.000000      0.000000
      5.46971      5.46971      5.46971         0.000000      0.000000      0.000000
      1.36743      1.36743      1.36743        -0.000000      0.000000     -0.000000
      4.10229      4.10229      1.36743        -0.000000      0.000000     -0.000000
      1.36743      4.10229      4.10229        -0.000000     -0.000000     -0.000000
      4.10229      6.83714      4.10229        -0.000000     -0.000000     -0.000000
      4.10229      1.36743      4.10229        -0.000000     -0.000000     -0.000000
      6.83714      4.10229      4.10229        -0.000000     -0.000000     -0.000000
      4.10229      4.10229      6.83714         0.000000     -0.000000     -0.000000
      6.83714      6.83714      6.83714        -0.000000     -0.000000     -0.000000
 -----------------------------------------------------------------------------------
    total drift:                               -0.000000      0.000000      0.000000


--------------------------------------------------------------------------------------------------------



  FREE ENERGIE OF THE ION-ELECTRON SYSTEM (eV)
  ---------------------------------------------------
  free  energy   TOTEN  =       -66.66459071 eV

  energy  without entropy=      -66.66459071  energy(sigma->0) =      -66.66459071
 


--------------------------------------------------------------------------------------------------------


    POTLOK:  cpu time      0.2518: real time      0.2524


--------------------------------------------------------------------------------------------------------


 writing wavefunctions
     LOOP+:  cpu time     74.7621: real time     75.0224
    4ORBIT:  cpu time      0.0000: real time      0.0000

 total amount of memory used by VASP MPI-rank0    34859. kBytes
=======================================================================

   base      :      30000. kBytes
   nonl-proj :       1228. kBytes
   fftplans  :        558. kBytes
   grid      :       2897. kBytes
   one-center:        124. kBytes
   wavefun   :         52. kBytes
 
  
  
 General timing and accounting informations for this job:
 ========================================================
  
                  Total CPU time used (sec):       84.564
                            User time (sec):       59.226
                          System time (sec):       25.338
                         Elapsed time (sec):       85.363
  
                   Maximum memory used (kb):      249976.
                   Average memory used (kb):          N/A
  
                          Minor page faults:        77726
                          Major page faults:           10
                 Voluntary context switches:         1804
