 vasp.6.2.0 18Jan21 (build Nov 12 2021 22:59:13) gamma-only                     
  
 executed on             LinuxIFC date 2022.02.25  07:11:31
 running on  192 total cores
 distrk:  each k-point on  192 cores,    1 groups
 distr:  one band on NCORE=   1 cores,  192 groups


--------------------------------------------------------------------------------------------------------


 INCAR:
   ENCUT = 400
   SIGMA = 0.0001
   EDIFF = 1E-6
   LHFCALC = .TRUE.
   AEXX = 1.0
   ISYM = -1
   ALGO = sub
   NELM = 1
   NBANDS = 780
   NBANDSHIGH = 780

 POTCAR:    PAW Si_GW 04May2012                   
 -----------------------------------------------------------------------------
|                                                                             |
|           W    W    AA    RRRRR   N    N  II  N    N   GGGG   !!!           |
|           W    W   A  A   R    R  NN   N  II  NN   N  G    G  !!!           |
|           W    W  A    A  R    R  N N  N  II  N N  N  G       !!!           |
|           W WW W  AAAAAA  RRRRR   N  N N  II  N  N N  G  GGG   !            |
|           WW  WW  A    A  R   R   N   NN  II  N   NN  G    G                |
|           W    W  A    A  R    R  N    N  II  N    N   GGGG   !!!           |
|                                                                             |
|     For optimal performance we recommend to set                             |
|       NCORE = 2 up to number-of-cores-per-socket                            |
|     NCORE specifies how many cores store one orbital (NPAR=cpu/NCORE).      |
|     This setting can greatly improve the performance of VASP for DFT.       |
|     The default, NCORE=1 might be grossly inefficient on modern             |
|     multi-core architectures or massively parallel machines. Do your        |
|     own testing! More info at https://www.vasp.at/wiki/index.php/NCORE      |
|     Unfortunately you need to use the default for GW and RPA                |
|     calculations (for HF NCORE is supported but not extensively tested      |
|     yet).                                                                   |
|                                                                             |
 -----------------------------------------------------------------------------

 POTCAR:    PAW Si_GW 04May2012                   
   VRHFIN =Si: s2p2                                                                                 
   LEXCH  = PE                                                                                      
   EATOM  =   103.0669 eV,    7.5752 Ry                                                             
                                                                                                    
   TITEL  = PAW Si_GW 04May2012                                                                     
   LULTRA =        F    use ultrasoft PP ?                                                          
   IUNSCR =        1    unscreen: 0-lin 1-nonlin 2-no                                               
   RPACOR =    1.500    partial core radius                                                         
   POMASS =   28.085; ZVAL   =    4.000    mass and valenz                                          
   RCORE  =    1.900    outmost cutoff radius                                                       
   RWIGS  =    2.480; RWIGS  =    1.312    wigner-seitz radius (au A)                               
   ENMAX  =  245.345; ENMIN  =  184.009 eV                                                          
   ICORE  =        3    local potential                                                             
   LCOR   =        T    correct aug charges                                                         
   LPAW   =        T    paw PP                                                                      
   EAUG   =  412.952                                                                                
   DEXC   =    0.000                                                                                
   RMAX   =    1.950    core radius for proj-oper                                                   
   RAUG   =    1.300    factor for augmentation sphere                                              
   RDEP   =    1.993    radius for radial grids                                                     
   RDEPT  =    2.000    core radius for aug-charge                                                  
                                                                                                    
   Atomic configuration                                                                             
    7 entries                                                                                       
     n  l   j            E        occ.                                                              
     1  0  0.50     -1785.8828   2.0000                                                             
     2  0  0.50      -139.4969   2.0000                                                             
     2  1  1.50       -95.5546   6.0000                                                             
     3  0  0.50       -10.8127   2.0000                                                             
     3  1  0.50        -4.0811   2.0000                                                             
     3  2  1.50        -4.0817   0.0000                                                             
     4  3  2.50        -4.0817   0.0000                                                             
   Description                                                                                      
     l       E           TYP  RCUT    TYP  RCUT                                                     
     0    -10.8127223     23  1.900                                                                 
     0     95.2407820     23  1.900                                                                 
     1     -4.0811372     23  1.900                                                                 
     1     54.4233040     23  1.900                                                                 
     2     -8.1634956     23  1.900                                                                 
     2     81.6349560     23  1.900                                                                 
     3     27.2116520     23  1.900                                                                 
  local pseudopotential read in
  partial core-charges read in
  partial kinetic energy density read in
  kinetic energy density of atom read in
  atomic valenz-charges read in
  non local Contribution for L=           0  read in
    real space projection operators read in
  non local Contribution for L=           0  read in
    real space projection operators read in
  non local Contribution for L=           1  read in
    real space projection operators read in
  non local Contribution for L=           1  read in
    real space projection operators read in
  non local Contribution for L=           2  read in
    real space projection operators read in
  non local Contribution for L=           2  read in
    real space projection operators read in
    PAW grid and wavefunctions read in
 
   number of l-projection  operators is LMAX  =           6
   number of lm-projection operators is LMMAX =          18
 
  PAW Si_GW 04May2012                   :
 energy of atom  1       EATOM= -103.0669
 kinetic energy error for atom=    0.0012 (will be added to EATOM!!)
 
 
 POSCAR: cd:
  positions in direct lattice
  velocities in cartesian coordinates
 exchange correlation table for  LEXCH =        8
   RHO(1)=    0.500       N(1)  =     2000
   RHO(2)=  100.500       N(2)  =     4000
 


--------------------------------------------------------------------------------------------------------


 ion  position               nearest neighbor table
   1  0.001  0.001  0.001-   9 2.38  12 2.38  10 2.38
   2  0.496  0.001  0.001-   9 2.38  11 2.38  13 2.38
   3  0.001  0.496  0.001-  10 2.38  11 2.38  14 2.38
   4  0.500  0.500  0.000-   9 2.37  10 2.37  11 2.37  15 2.37
   5  0.001  0.001  0.496-  12 2.38  13 2.38  14 2.38
   6  0.500  0.000  0.500-   9 2.37  12 2.37  13 2.37  15 2.37
   7  0.000  0.500  0.500-  10 2.37  12 2.37  14 2.37  15 2.37
   8  0.500  0.500  0.500-  11 2.37  13 2.37  14 2.37  15 2.37
   9  0.625  0.125  0.125-   4 2.37   6 2.37   2 2.38   1 2.38
  10  0.125  0.625  0.125-   4 2.37   7 2.37   3 2.38   1 2.38
  11  0.625  0.625  0.125-   4 2.37   8 2.37   2 2.38   3 2.38
  12  0.125  0.125  0.625-   6 2.37   7 2.37   5 2.38   1 2.38
  13  0.625  0.125  0.625-   6 2.37   8 2.37   2 2.38   5 2.38
  14  0.125  0.625  0.625-   7 2.37   8 2.37   3 2.38   5 2.38
  15  0.625  0.625  0.625-   4 2.37   7 2.37   6 2.37   8 2.37
 

IMPORTANT INFORMATION: All symmetrisations will be switched off!
NOSYMM: (Re-)initialisation of all symmetry stuff for point group C_1.


----------------------------------------------------------------------------------------

                                     Primitive cell                                     

  volume of cell :     327.2832

  direct lattice vectors                    reciprocal lattice vectors
     5.469713400  5.469713400  0.000000000     0.091412468  0.091412468 -0.091412468
     0.000000000  5.469713400  5.469713400    -0.091412468  0.091412468  0.091412468
     5.469713400  0.000000000  5.469713400     0.091412468 -0.091412468  0.091412468

  length of vectors
     7.735342873  7.735342873  7.735342873     0.158331039  0.158331039  0.158331039

  position of ions in fractional coordinates (direct lattice)
     0.001371464  0.001371464  0.001371464
     0.495885607  0.001371464  0.001371464
     0.001371464  0.495885607  0.001371464
     0.499999461  0.499999461  0.000001617
     0.001371464  0.001371464  0.495885607
     0.499999461  0.000001617  0.499999461
     0.000001617  0.499999461  0.499999461
     0.499999461  0.499999461  0.499999461
     0.624789722  0.125210278  0.125210278
     0.125210278  0.624789722  0.125210278
     0.624789722  0.624789722  0.125210278
     0.125210278  0.125210278  0.624789722
     0.624789722  0.125210278  0.624789722
     0.125210278  0.624789722  0.624789722
     0.625000000  0.625000000  0.625000000

  ion indices of the primitive-cell ions
   primitive index   ion index
                 1           1
                 2           2
                 3           3
                 4           4
                 5           5
                 6           6
                 7           7
                 8           8
                 9           9
                10          10
                11          11
                12          12
                13          13
                14          14
                15          15

----------------------------------------------------------------------------------------

 
 
 KPOINTS: Automatic mesh                          

Automatic generation of k-mesh.
 Grid dimensions read from file:
 generate k-points for:    1    1    1

 Generating k-lattice:

  Cartesian coordinates                     Fractional coordinates (reciprocal lattice)
     0.091412468  0.091412468 -0.091412468     1.000000000  0.000000000  0.000000000
    -0.091412468  0.091412468  0.091412468     0.000000000  1.000000000 -0.000000000
     0.091412468 -0.091412468  0.091412468    -0.000000000 -0.000000000  1.000000000

  Length of vectors
     0.158331039  0.158331039  0.158331039

  Shift w.r.t. Gamma in fractional coordinates (k-lattice)
     0.000000000  0.000000000  0.000000000

 
 Subroutine IBZKPT returns following result:
 ===========================================
 
 Found      1 irreducible k-points:
 
 Following reciprocal coordinates:
            Coordinates               Weight
  0.000000  0.000000  0.000000      1.000000
 
 Following cartesian coordinates:
            Coordinates               Weight
  0.000000  0.000000  0.000000      1.000000
 
 WARNING: full set of k-points will be restricted to regular points only.

 
 Subroutine IBZKPT_HF returns following result:
 ==============================================
 
 Found      1 k-points in 1st BZ
 the following      1 k-points will be used (e.g. in the exchange kernel)
 Following reciprocal coordinates:   # in IRBZ
  0.000000  0.000000  0.000000    1.00000000   1 t-inv F
 -----------------------------------------------------------------------------
|                                                                             |
|           W    W    AA    RRRRR   N    N  II  N    N   GGGG   !!!           |
|           W    W   A  A   R    R  NN   N  II  NN   N  G    G  !!!           |
|           W    W  A    A  R    R  N N  N  II  N N  N  G       !!!           |
|           W WW W  AAAAAA  RRRRR   N  N N  II  N  N N  G  GGG   !            |
|           WW  WW  A    A  R   R   N   NN  II  N   NN  G    G                |
|           W    W  A    A  R    R  N    N  II  N    N   GGGG   !!!           |
|                                                                             |
|     The number of bands has been changed from the values supplied in        |
|     the INCAR file. This is a result of running the parallel version.       |
|     The orbitals not found in the WAVECAR file will be initialized with     |
|     random numbers, which is usually adequate. For correlated               |
|     calculations, however, you should redo the groundstate calculation.     |
|     I found NBANDS = 780. Now, NBANDS = 960.                                |
|                                                                             |
 -----------------------------------------------------------------------------



--------------------------------------------------------------------------------------------------------




 Dimension of arrays:
   k-points           NKPTS =      1   k-points in BZ     NKDIM =      1   number of bands    NBANDS=    960
   number of dos      NEDOS =    301   number of ions     NIONS =     15
   non local maximal  LDIM  =      6   non local SUM 2l+1 LMDIM =     18
   total plane-waves  NPLWV =  64000
   max r-space proj   IRMAX =      1   max aug-charges    IRDMAX=   9797
   dimension x,y,z NGX =    40 NGY =   40 NGZ =   40
   dimension x,y,z NGXF=    80 NGYF=   80 NGZF=   80
   support grid    NGXF=    80 NGYF=   80 NGZF=   80
   ions per type =              15
   lowest and highest band optimized NBANDSLOW=      -1 NBANDSHIGH=     780
   NGX,Y,Z   is equivalent  to a cutoff of   8.60,  8.60,  8.60 a.u.
   NGXF,Y,Z  is equivalent  to a cutoff of  17.19, 17.19, 17.19 a.u.

 SYSTEM =  unknown system                          
 POSCAR =  cd:                                     

 Startparameter for this run:
   NWRITE =      2    write-flag & timer
   PREC   = normal    normal or accurate (medium, high low for compatibility)
   ISTART =      1    job   : 0-new  1-cont  2-samecut
   ICHARG =      0    charge: 1-file 2-atom 10-const
   ISPIN  =      1    spin polarized calculation?
   LNONCOLLINEAR =      F non collinear calculations
   LSORBIT =      F    spin-orbit coupling
   INIWAV =      1    electr: 0-lowe 1-rand  2-diag
   LASPH  =      F    aspherical Exc in radial PAW
   METAGGA=      F    non-selfconsistent MetaGGA calc.

 Electronic Relaxation 1
   ENCUT  =  400.0 eV  29.40 Ry    5.42 a.u.  12.61 12.61 12.61*2*pi/ulx,y,z
   ENINI  =  400.0     initial cutoff
   ENAUG  =  413.0 eV  augmentation charge cutoff
   NELM   =      1;   NELMIN=  2; NELMDL=  0     # of ELM steps 
   EDIFF  = 0.1E-05   stopping-criterion for ELM
   LREAL  =      F    real-space projection
   NLSPLINE    = F    spline interpolate recip. space projectors
   LCOMPAT=      F    compatible to vasp.4.4
   GGA_COMPAT  = T    GGA compatible to vasp.4.4-vasp.4.6
   LMAXPAW     = -100 max onsite density
   LMAXMIX     =    2 max onsite mixed and CHGCAR
   VOSKOWN=      0    Vosko Wilk Nusair interpolation
   ROPT   =    0.00000
 Ionic relaxation
   EDIFFG = 0.1E-04   stopping-criterion for IOM
   NSW    =      0    number of steps for IOM
   NBLOCK =      1;   KBLOCK =      1    inner block; outer block 
   IBRION =     -1    ionic relax: 0-MD 1-quasi-New 2-CG
   NFREE  =      0    steps in history (QN), initial steepest desc. (CG)
   ISIF   =      0    stress and relaxation
   IWAVPR =     10    prediction:  0-non 1-charg 2-wave 3-comb
   ISYM   =     -1    0-nonsym 1-usesym 2-fastsym
   LCORR  =      T    Harris-Foulkes like correction to forces

   POTIM  = 0.5000    time-step for ionic-motion
   TEIN   =    0.0    initial temperature
   TEBEG  =    0.0;   TEEND  =   0.0 temperature during run
   SMASS  =  -3.00    Nose mass-parameter (am)
   estimated Nose-frequenzy (Omega)   =  0.10E-29 period in steps = 0.13E+47 mass=  -0.137E-26a.u.
   SCALEE = 1.0000    scale energy and forces
   NPACO  =    256;   APACO  = 16.0  distance and # of slots for P.C.
   PSTRESS=    0.0 pullay stress

  Mass of Ions in am
   POMASS =  28.09
  Ionic Valenz
   ZVAL   =   4.00
  Atomic Wigner-Seitz radii
   RWIGS  =  -1.00
  virtual crystal weights 
   VCA    =   1.00
   NELECT =      60.0000    total number of electrons
   NUPDOWN=      -1.0000    fix difference up-down

 DOS related values:
   EMIN   =  10.00;   EMAX   =-10.00  energy-range for DOS
   EFERMI =   0.00
   ISMEAR =     1;   SIGMA  =   0.00  broadening in eV -4-tet -1-fermi 0-gaus

 Electronic relaxation 2 (details)
   IALGO  =      4    algorithm
   LDIAG  =      T    sub-space diagonalisation (order eigenvalues)
   LSUBROT=      F    optimize rotation matrix (better conditioning)
   TURBO    =      0    0=normal 1=particle mesh
   IRESTART =      0    0=no restart 2=restart with 2 vectors
   NREBOOT  =      0    no. of reboots
   NMIN     =      0    reboot dimension
   EREF     =   0.00    reference energy to select bands
   IMIX   =      1    mixing-type and parameters
     AMIX     =   0.40;   BMIX     =  1.00
     AMIX_MAG =   1.60;   BMIX_MAG =  1.00
     AMIN     =   0.10
     WC   =   100.;   INIMIX=   1;  MIXPRE=   1;  MAXMIX= -45

 Intra band minimization:
   WEIMIN = 0.0000     energy-eigenvalue tresh-hold
   EBREAK =  0.26E-09  absolut break condition
   DEPER  =   0.30     relativ break condition  

   TIME   =   0.40     timestep for ELM

  volume/ion in A,a.u.               =      21.82       147.24
  Fermi-wavevector in a.u.,A,eV,Ry     =   0.930002  1.757449 11.767737  0.864904
  Thomas-Fermi vector in A             =   2.056345
 
 Write flags
   LWAVE        =      T    write WAVECAR
   LDOWNSAMPLE  =      F    k-point downsampling of WAVECAR
   LCHARG       =      T    write CHGCAR
   LVTOT        =      F    write LOCPOT, total local potential
   LVHAR        =      F    write LOCPOT, Hartree potential only
   LELF         =      F    write electronic localiz. function (ELF)
   LORBIT       =      0    0 simple, 1 ext, 2 COOP (PROOUT), +10 PAW based schemes


 Dipole corrections
   LMONO  =      F    monopole corrections only (constant potential shift)
   LDIPOL =      F    correct potential (dipole corrections)
   IDIPOL =      0    1-x, 2-y, 3-z, 4-all directions 
   EPSILON=  1.0000000 bulk dielectric constant

 Exchange correlation treatment:
   GGA     =    --    GGA type
   LEXCH   =     8    internal setting for exchange type
   VOSKOWN=      0    Vosko Wilk Nusair interpolation
   EXXOEP  =     0    0=HF, 1=EXX-LHF (local Hartree Fock) 2=EXX OEP
   LHFCALC =     T    Hartree Fock is set to
   LSYMGRAD=     F    symmetrize gradient (conserves proper symmetry)
   PRECFOCK=normal    Normal, Fast or Accurate (Low or Medium for compatibility)
   LRHFCALC=     F    long range Hartree Fock
   LRSCOR  =     F    long range correlation only (use DFT for short range part)
   LTHOMAS =     F    Thomas Fermi screening in HF
   LMODELHF=     F    short range full HF, long range fraction AEXX
   LFOCKACE=     T    use Adeptively-Compressed-Exchange operator
   ENCUT4O =  -1.0   cutoff for four orbital integrals eV
   LMAXFOCK=     4    L truncation for augmentation on plane wave grid
   LMAXFOCKAE=  -1    L truncation for all-electron charge restoration on plane wave grid
   NMAXFOCKAE=   1    number of basis functions for all-electron charge restoration
   LFOCKAEDFT=     F  apply the AE augmentation even for DFT
   NKREDX  =     1    reduce k-point grid by
   NKREDY  =     1    reduce k-point grid by
   NKREDZ  =     1    reduce k-point grid by
   SHIFTRED=     F    shift reduced grid of Gamma
   HFKIDENT=     F    idential grid for each k-point
   ODDONLY =     F    use only odd q-grid points
   EVENONLY=     F    use only even q-grid points
   HFALPHA =   -1.0000 decay constant for conv. correction
   MCALPHA =    0.0000 extent of test-charge in conv. correction in multipole expansion
   AEXX    =    1.0000 exact exchange contribution
   HFSCREEN=    0.0000 screening length (either q_TF or 0.3 A-1)
   HFSCREENC=   0.0000 screening length for correlation (either q_TF or 0.3 A-1)
   HFRCUT  =    0.0000 spherical cutoff for potential kernel
   ALDAX   =    0.0000 LDA exchange part
   AGGAX   =    0.0000 GGA exchange part
   ALDAC   =    0.0000 LDA correlation
   AGGAC   =    0.0000 GGA correlation
   ENCUTFOCK=  -1.0 apply spherical cutoff to Coloumb kernel
   NBANDSGWLOW=     1    first orbital included in HF term
   NBLOCK_FOCK=    64    blocking factor in FOCK_ACC
 Linear response parameters
   LEPSILON=     F    determine dielectric tensor
   LRPA    =     F    only Hartree local field effects (RPA)
   LNABLA  =     F    use nabla operator in PAW spheres
   LVEL    =     F    velocity operator in full k-point grid
   LINTERFAST=   F  fast interpolation
   KINTER  =     0    interpolate to denser k-point grid
   CSHIFT  =0.1000    complex shift for real part using Kramers Kronig
   OMEGAMAX=  -1.0    maximum frequency
   DEG_THRESHOLD= 0.2000000E-02 threshold for treating states as degnerate
   RTIME   =   -0.100 relaxation time in fs
  (WPLASMAI=    0.000 imaginary part of plasma frequency in eV, 0.658/RTIME)
   DFIELD  = 0.0000000 0.0000000 0.0000000 field for delta impulse in time
 
 Orbital magnetization related:
   ORBITALMAG=     F  switch on orbital magnetization
   LCHIMAG   =     F  perturbation theory with respect to B field
   DQ        =  0.001000  dq finite difference perturbation B field
   LLRAUG    =     F  two centre corrections for induced B field



--------------------------------------------------------------------------------------------------------


 Static calculation
 charge density and potential will be updated during run
 non-spin polarized calculation
 Subrot: only subspace diagonalization (rotation)
    band-by band algorithm
 perform sub-space diagonalisation
    before iterative eigenvector-optimisation
 Kerker-like  mixing scheme
 using additional bands          930
 reciprocal scheme for non local part
 use partial core corrections
 calculate Harris-corrections to forces 
   (improved forces if not selfconsistent)
 use gradient corrections 
 use of overlap-Matrix (Vanderbilt PP)
 Methfessel and Paxton  Order N= 1 SIGMA  =   0.00


--------------------------------------------------------------------------------------------------------


  energy-cutoff  :      400.00
  volume of cell :      327.28
      direct lattice vectors                 reciprocal lattice vectors
     5.469713400  5.469713400  0.000000000     0.091412468  0.091412468 -0.091412468
     0.000000000  5.469713400  5.469713400    -0.091412468  0.091412468  0.091412468
     5.469713400  0.000000000  5.469713400     0.091412468 -0.091412468  0.091412468

  length of vectors
     7.735342873  7.735342873  7.735342873     0.158331039  0.158331039  0.158331039


 
 old parameters found on file WAVECAR:
  energy-cutoff  :      400.00
  volume of cell :      327.28
      direct lattice vectors                 reciprocal lattice vectors
     5.469713400  5.469713400  0.000000000     0.091412468  0.091412468 -0.091412468
     0.000000000  5.469713400  5.469713400    -0.091412468  0.091412468  0.091412468
     5.469713400  0.000000000  5.469713400     0.091412468 -0.091412468  0.091412468

  length of vectors

 
 k-points in units of 2pi/SCALE and weight: Automatic mesh                          
   0.00000000  0.00000000  0.00000000       1.000
 
 k-points in reciprocal lattice and weights: Automatic mesh                          
   0.00000000  0.00000000  0.00000000       1.000
 
 position of ions in fractional coordinates (direct lattice) 
   0.00137146  0.00137146  0.00137146
   0.49588561  0.00137146  0.00137146
   0.00137146  0.49588561  0.00137146
   0.49999946  0.49999946  0.00000162
   0.00137146  0.00137146  0.49588561
   0.49999946  0.00000162  0.49999946
   0.00000162  0.49999946  0.49999946
   0.49999946  0.49999946  0.49999946
   0.62478972  0.12521028  0.12521028
   0.12521028  0.62478972  0.12521028
   0.62478972  0.62478972  0.12521028
   0.12521028  0.12521028  0.62478972
   0.62478972  0.12521028  0.62478972
   0.12521028  0.62478972  0.62478972
   0.62500000  0.62500000  0.62500000
 
 position of ions in cartesian coordinates  (Angst):
   0.01500303  0.01500303  0.01500303
   2.71985367  2.71985367  0.01500303
   0.01500303  2.71985367  2.71985367
   2.73486260  5.46970750  2.73486260
   2.71985367  0.01500303  2.71985367
   5.46970750  2.73486260  2.73486260
   2.73486260  2.73486260  5.46970750
   5.46970750  5.46970750  5.46970750
   4.10228505  4.10228505  1.36972867
   1.36972867  4.10228505  4.10228505
   4.10228505  6.83484143  4.10228505
   4.10228505  1.36972867  4.10228505
   6.83484143  4.10228505  4.10228505
   4.10228505  4.10228505  6.83484143
   6.83714175  6.83714175  6.83714175
 


--------------------------------------------------------------------------------------------------------


 use serial FFT for orbitals x direction half grid
 k-point   1 :   0.0000 0.0000 0.0000  plane waves:    2981

 maximum and minimum number of plane-waves per node :      2981     2981

 maximum number of plane-waves:      2981
 maximum index in each direction: 
   IXMAX=   12   IYMAX=   12   IZMAX=   12
   IXMIN=    0   IYMIN=  -10   IZMIN=  -10


 serial   3D FFT for wavefunctions
 parallel 3D FFT for charge:
    minimum data exchange during FFTs selected (reduces bandwidth)

 
 Radii for the augmentation spheres in the non-local exchange
 for species   1 augmentation radius   1.405 (default was   1.124)
       energy cutoff for augmentation   1600.0
 Maximum index for augmentation-charges in exchange         2259
  SETUP_FOCK is finished

 total amount of memory used by VASP MPI-rank0    42445. kBytes
=======================================================================

   base      :      30000. kBytes
   nonl-proj :       1179. kBytes
   fftplans  :        513. kBytes
   grid      :       2897. kBytes
   one-center:        116. kBytes
   HF        :         64. kBytes
   nonlr-proj:       7415. kBytes
   wavefun   :        261. kBytes
 
     INWAV:  cpu time    0.7484: real time    0.7509
 charge density for first step will be calculated from the start-wavefunctions


--------------------------------------------------------------------------------------------------------


 Maximum index for augmentation-charges          499 (set IRDMAX)


--------------------------------------------------------------------------------------------------------


 initial charge from wavefunction
    FEWALD:  cpu time    0.0028: real time    0.0028


--------------------------------------- Iteration      1(   1)  ---------------------------------------


    POTLOK:  cpu time    0.1305: real time    0.1314
    SETDIJ:  cpu time    0.0116: real time    0.0119
    EDDIAG:  cpu time   21.7617: real time   21.8219
       DOS:  cpu time    0.0018: real time    0.0020
    --------------------------------------------
      LOOP:  cpu time   21.9056: real time   21.9672

 eigenvalue-minimisations  :     0
 total energy-change (2. order) :-0.1313264E+03  ( 0.0000000E+00)
 number of electron      59.9999980 magnetization 
 augmentation part       -3.2407021 magnetization 

 Free energy of the ion-electron system (eV)
  ---------------------------------------------------
  alpha Z        PSCENC =        41.88619531
  Ewald energy   TEWEN  =     -1640.06298675
  -Hartree energ DENC   =      -156.34976172
  -exchange      EXHF   =       444.04229560
  -V(xc)+E(xc)   XCENC  =         0.00000000
  PAW double counting   =      1933.85232333    -1937.27765057
  entropy T*S    EENTRO =         0.00000000
  eigenvalues    EBANDS =      -228.47443323
  atomic energy  EATOM  =      1411.05760457
  Solvation  Ediel_sol  =         0.00000000
  ---------------------------------------------------
  free energy    TOTEN  =      -131.32641346 eV

  energy without entropy =     -131.32641346  energy(sigma->0) =     -131.32641346
  exchange ACFDT corr.  =     -1177.57828521  see jH, gK, PRB 81, 115126


--------------------------------------------------------------------------------------------------------




 average (electrostatic) potential at core
  the test charge radii are     1.1243
  (the norm of the test charge is              1.0000)
       1 -50.3658       2 -52.1760       3 -52.1758       4 -50.5476       5 -52.1759
       6 -50.5476       7 -50.5476       8 -50.6263       9 -50.6594      10 -50.6594
      11 -51.1826      12 -50.6594      13 -51.1826      14 -51.1826      15 -50.4201
 
 
 
 E-fermi :   4.6545     XC(G=0):   0.0000     alpha+bet :-10.6543

 Fermi energy:         4.6545230289

 k-point     1 :       0.0000    0.0000    0.0000
  band No.  band energies     occupation 
      1     -13.4605      2.00000
      2     -10.4988      2.00000
      3     -10.4988      2.00000
      4     -10.4492      2.00000
      5      -9.6253      2.00000
      6      -7.9394      2.00000
      7      -7.9394      2.00000
      8      -7.7508      2.00000
      9      -7.7508      2.00000
     10      -7.6513      2.00000
     11      -6.7406      2.00000
     12      -6.1291      2.00000
     13      -6.1291      2.00000
     14      -6.0761      2.00000
     15      -1.6452      2.00000
     16      -1.3316      2.00000
     17      -1.2617      2.00000
     18      -1.2617      2.00000
     19      -0.7465      2.00000
     20      -0.7152      2.00000
     21      -0.7152      2.00000
     22       0.5184      2.00000
     23       0.5185      2.00000
     24       0.5769      2.00000
     25       0.6727      2.00000
     26       0.6727      2.00000
     27       1.4907      2.00000
     28       1.6235      2.00000
     29       1.6235      2.00000
     30       4.3820      2.00000
     31      10.1801      0.00000
     32      10.1827      0.00000
     33      10.4641      0.00000
     34      10.4708      0.00000
     35      10.6247      0.00000
     36      10.6826      0.00000
     37      10.7960      0.00000
     38      10.7978      0.00000
     39      11.5986      0.00000
     40      11.6025      0.00000
     41      11.6336      0.00000
     42      12.9314      0.00000
     43      13.0212      0.00000
     44      13.0368      0.00000
     45      13.0396      0.00000
     46      13.4936      0.00000
     47      13.5336      0.00000
     48      13.5347      0.00000
     49      13.7922      0.00000
     50      13.7968      0.00000
     51      14.5636      0.00000
     52      14.6219      0.00000
     53      14.6251      0.00000
     54      15.3594      0.00000
     55      17.9678      0.00000
     56      18.1730      0.00000
     57      18.2908      0.00000
     58      18.3754      0.00000
     59      18.5053      0.00000
     60      18.9037      0.00000
     61      18.9205      0.00000
     62      21.8436      0.00000
     63      21.8546      0.00000
     64      21.9085      0.00000
     65      21.9719      0.00000
     66      21.9794      0.00000
     67      21.9836      0.00000
     68      22.0094      0.00000
     69      22.0132      0.00000
     70      22.0152      0.00000
     71      22.1077      0.00000
     72      22.1283      0.00000
     73      22.1714      0.00000
     74      22.2579      0.00000
     75      22.2719      0.00000
     76      22.3031      0.00000
     77      22.3433      0.00000
     78      22.3517      0.00000
     79      22.3532      0.00000
     80      22.4266      0.00000
     81      22.4483      0.00000
     82      22.6025      0.00000
     83      22.7155      0.00000
     84      22.7281      0.00000
     85      22.7468      0.00000
     86      22.9603      0.00000
     87      22.9660      0.00000
     88      23.0221      0.00000
     89      23.3021      0.00000
     90      23.3132      0.00000
     91      23.5601      0.00000
     92      23.5793      0.00000
     93      23.7201      0.00000
     94      24.3045      0.00000
     95      24.3226      0.00000
     96      24.3311      0.00000
     97      24.3901      0.00000
     98      24.4054      0.00000
     99      24.4540      0.00000
    100      24.4658      0.00000
    101      24.6637      0.00000
    102      24.6828      0.00000
    103      25.0116      0.00000
    104      25.0784      0.00000
    105      25.0891      0.00000
    106      25.0994      0.00000
    107      25.5534      0.00000
    108      25.6514      0.00000
    109      25.6781      0.00000
    110      26.2792      0.00000
    111      27.7470      0.00000
    112      27.7607      0.00000
    113      27.8952      0.00000
    114      31.0439      0.00000
    115      31.1216      0.00000
    116      31.3052      0.00000
    117      31.3839      0.00000
    118      31.6185      0.00000
    119      31.6282      0.00000
    120      31.6569      0.00000
    121      31.7032      0.00000
    122      31.7259      0.00000
    123      31.9017      0.00000
    124      31.9132      0.00000
    125      31.9937      0.00000
    126      32.1593      0.00000
    127      32.2341      0.00000
    128      32.2669      0.00000
    129      32.2980      0.00000
    130      32.4248      0.00000
    131      32.4303      0.00000
    132      32.4579      0.00000
    133      32.5270      0.00000
    134      32.7040      0.00000
    135      32.7814      0.00000
    136      32.8081      0.00000
    137      33.1547      0.00000
    138      33.1771      0.00000
    139      33.1967      0.00000
    140      33.5133      0.00000
    141      33.5282      0.00000
    142      33.6537      0.00000
    143      33.6898      0.00000
    144      33.8098      0.00000
    145      33.9133      0.00000
    146      34.1524      0.00000
    147      34.2028      0.00000
    148      34.2412      0.00000
    149      34.2625      0.00000
    150      34.2876      0.00000
    151      34.4482      0.00000
    152      34.5821      0.00000
    153      34.5918      0.00000
    154      35.0505      0.00000
    155      35.1079      0.00000
    156      35.1277      0.00000
    157      35.8343      0.00000
    158      35.8494      0.00000
    159      35.8813      0.00000
    160      36.3482      0.00000
    161      36.3970      0.00000
    162      37.2080      0.00000
    163      37.3236      0.00000
    164      37.3809      0.00000
    165      38.2236      0.00000
    166      38.7595      0.00000
    167      39.0395      0.00000
    168      39.0616      0.00000
    169      39.3722      0.00000
    170      39.5011      0.00000
    171      39.7600      0.00000
    172      39.8163      0.00000
    173      39.8582      0.00000
    174      39.9591      0.00000
    175      40.0055      0.00000
    176      40.0573      0.00000
    177      40.1663      0.00000
    178      40.2315      0.00000
    179      40.2812      0.00000
    180      40.2867      0.00000
    181      40.3373      0.00000
    182      40.4233      0.00000
    183      40.7262      0.00000
    184      40.8024      0.00000
    185      40.9095      0.00000
    186      41.4075      0.00000
    187      41.4806      0.00000
    188      41.5010      0.00000
    189      41.5621      0.00000
    190      41.5738      0.00000
    191      41.6228      0.00000
    192      41.6504      0.00000
    193      41.6787      0.00000
    194      41.8134      0.00000
    195      42.0300      0.00000
    196      42.0747      0.00000
    197      42.5163      0.00000
    198      42.5474      0.00000
    199      42.6027      0.00000
    200      42.6528      0.00000
    201      42.7778      0.00000
    202      42.8611      0.00000
    203      43.6980      0.00000
    204      43.7186      0.00000
    205      43.7970      0.00000
    206      44.1921      0.00000
    207      44.6667      0.00000
    208      44.7854      0.00000
    209      44.7952      0.00000
    210      45.6912      0.00000
    211      45.7445      0.00000
    212      45.8002      0.00000
    213      46.4269      0.00000
    214      46.5164      0.00000
    215      46.5656      0.00000
    216      46.8601      0.00000
    217      46.9773      0.00000
    218      47.0131      0.00000
    219      47.1278      0.00000
    220      47.4646      0.00000
    221      47.5618      0.00000
    222      47.6143      0.00000
    223      47.6938      0.00000
    224      47.7249      0.00000
    225      47.8075      0.00000
    226      47.8659      0.00000
    227      47.9411      0.00000
    228      47.9803      0.00000
    229      47.9941      0.00000
    230      48.1158      0.00000
    231      48.2589      0.00000
    232      48.4497      0.00000
    233      48.5123      0.00000
    234      48.5507      0.00000
    235      48.6072      0.00000
    236      48.6886      0.00000
    237      49.0417      0.00000
    238      49.2447      0.00000
    239      49.3350      0.00000
    240      49.3892      0.00000
    241      49.4933      0.00000
    242      49.7422      0.00000
    243      49.8572      0.00000
    244      50.1219      0.00000
    245      50.3199      0.00000
    246      50.4380      0.00000
    247      50.6237      0.00000
    248      50.8203      0.00000
    249      51.1943      0.00000
    250      51.2882      0.00000
    251      51.3866      0.00000
    252      51.4564      0.00000
    253      51.4870      0.00000
    254      51.6511      0.00000
    255      51.7540      0.00000
    256      51.7800      0.00000
    257      52.0140      0.00000
    258      52.2630      0.00000
    259      52.4082      0.00000
    260      52.5910      0.00000
    261      52.6857      0.00000
    262      52.8463      0.00000
    263      53.0201      0.00000
    264      53.0392      0.00000
    265      53.1978      0.00000
    266      53.2934      0.00000
    267      53.5045      0.00000
    268      53.5849      0.00000
    269      54.3337      0.00000
    270      54.4564      0.00000
    271      54.6232      0.00000
    272      55.1421      0.00000
    273      55.4545      0.00000
    274      55.4900      0.00000
    275      55.9468      0.00000
    276      56.1443      0.00000
    277      56.5449      0.00000
    278      56.7870      0.00000
    279      56.9041      0.00000
    280      57.0807      0.00000
    281      57.1718      0.00000
    282      57.1853      0.00000
    283      57.2318      0.00000
    284      57.4619      0.00000
    285      57.5840      0.00000
    286      57.6230      0.00000
    287      57.8021      0.00000
    288      57.8554      0.00000
    289      57.9845      0.00000
    290      58.0730      0.00000
    291      58.0851      0.00000
    292      58.2539      0.00000
    293      58.4563      0.00000
    294      58.5232      0.00000
    295      58.5794      0.00000
    296      58.6611      0.00000
    297      58.7925      0.00000
    298      58.8237      0.00000
    299      58.8757      0.00000
    300      58.9611      0.00000
    301      58.9814      0.00000
    302      59.1488      0.00000
    303      59.2013      0.00000
    304      59.3680      0.00000
    305      59.6253      0.00000
    306      59.7134      0.00000
    307      59.7234      0.00000
    308      59.7804      0.00000
    309      59.7990      0.00000
    310      59.8859      0.00000
    311      60.0777      0.00000
    312      60.1076      0.00000
    313      60.4071      0.00000
    314      60.4571      0.00000
    315      60.6534      0.00000
    316      60.6662      0.00000
    317      60.7656      0.00000
    318      60.8505      0.00000
    319      60.9356      0.00000
    320      60.9803      0.00000
    321      61.0319      0.00000
    322      61.2288      0.00000
    323      61.4499      0.00000
    324      61.6374      0.00000
    325      62.4543      0.00000
    326      62.5683      0.00000
    327      62.5946      0.00000
    328      63.0660      0.00000
    329      63.1893      0.00000
    330      63.2008      0.00000
    331      63.4527      0.00000
    332      63.7960      0.00000
    333      63.8747      0.00000
    334      63.9929      0.00000
    335      64.0141      0.00000
    336      64.1333      0.00000
    337      64.1824      0.00000
    338      64.1946      0.00000
    339      64.3730      0.00000
    340      64.4272      0.00000
    341      64.4593      0.00000
    342      64.4998      0.00000
    343      64.6669      0.00000
    344      65.1798      0.00000
    345      65.2992      0.00000
    346      65.4005      0.00000
    347      65.4797      0.00000
    348      65.5138      0.00000
    349      65.5456      0.00000
    350      65.5908      0.00000
    351      65.7950      0.00000
    352      65.8112      0.00000
    353      65.9920      0.00000
    354      66.2192      0.00000
    355      66.4702      0.00000
    356      66.6376      0.00000
    357      66.8681      0.00000
    358      66.9448      0.00000
    359      67.3415      0.00000
    360      67.3924      0.00000
    361      67.4790      0.00000
    362      67.9108      0.00000
    363      68.2251      0.00000
    364      68.4597      0.00000
    365      68.4798      0.00000
    366      68.6736      0.00000
    367      68.7524      0.00000
    368      68.9339      0.00000
    369      69.7369      0.00000
    370      70.8004      0.00000
    371      71.0421      0.00000
    372      71.5734      0.00000
    373      71.8162      0.00000
    374      71.9673      0.00000
    375      72.3802      0.00000
    376      72.7006      0.00000
    377      72.7716      0.00000
    378      72.9903      0.00000
    379      73.2668      0.00000
    380      73.3687      0.00000
    381      73.3928      0.00000
    382      73.4288      0.00000
    383      73.7280      0.00000
    384      73.9311      0.00000
    385      73.9791      0.00000
    386      73.9901      0.00000
    387      74.1257      0.00000
    388      74.2067      0.00000
    389      74.3537      0.00000
    390      74.5239      0.00000
    391      74.5479      0.00000
    392      74.8382      0.00000
    393      74.9746      0.00000
    394      75.0603      0.00000
    395      75.1483      0.00000
    396      75.2779      0.00000
    397      75.3435      0.00000
    398      75.6047      0.00000
    399      75.6618      0.00000
    400      75.7669      0.00000
    401      75.8323      0.00000
    402      75.8789      0.00000
    403      76.0015      0.00000
    404      76.0599      0.00000
    405      76.2408      0.00000
    406      76.3462      0.00000
    407      76.4356      0.00000
    408      76.5247      0.00000
    409      76.5434      0.00000
    410      76.5719      0.00000
    411      76.6852      0.00000
    412      76.8029      0.00000
    413      76.8566      0.00000
    414      77.0068      0.00000
    415      77.0444      0.00000
    416      77.1390      0.00000
    417      77.2034      0.00000
    418      77.2585      0.00000
    419      77.4044      0.00000
    420      77.4913      0.00000
    421      77.6289      0.00000
    422      77.6340      0.00000
    423      77.6925      0.00000
    424      77.8638      0.00000
    425      78.0163      0.00000
    426      78.0822      0.00000
    427      78.2018      0.00000
    428      78.2599      0.00000
    429      78.4387      0.00000
    430      78.5672      0.00000
    431      78.6615      0.00000
    432      78.8848      0.00000
    433      78.9369      0.00000
    434      79.1484      0.00000
    435      79.1845      0.00000
    436      79.3108      0.00000
    437      79.5825      0.00000
    438      79.6175      0.00000
    439      79.8842      0.00000
    440      79.9811      0.00000
    441      80.0919      0.00000
    442      80.1171      0.00000
    443      80.4625      0.00000
    444      80.6752      0.00000
    445      80.7515      0.00000
    446      80.7686      0.00000
    447      80.9239      0.00000
    448      81.4181      0.00000
    449      81.6786      0.00000
    450      82.0114      0.00000
    451      82.0258      0.00000
    452      82.3171      0.00000
    453      82.4481      0.00000
    454      82.5642      0.00000
    455      82.8607      0.00000
    456      82.9148      0.00000
    457      82.9959      0.00000
    458      83.0655      0.00000
    459      83.2645      0.00000
    460      83.4955      0.00000
    461      83.5541      0.00000
    462      83.5947      0.00000
    463      83.6942      0.00000
    464      83.7198      0.00000
    465      83.8446      0.00000
    466      83.9388      0.00000
    467      83.9847      0.00000
    468      84.0234      0.00000
    469      84.1142      0.00000
    470      84.2551      0.00000
    471      84.2882      0.00000
    472      84.3667      0.00000
    473      84.4086      0.00000
    474      84.4898      0.00000
    475      84.6451      0.00000
    476      84.7728      0.00000
    477      84.8179      0.00000
    478      85.0083      0.00000
    479      85.1082      0.00000
    480      85.2221      0.00000
    481      85.4687      0.00000
    482      85.5847      0.00000
    483      85.6549      0.00000
    484      85.8730      0.00000
    485      85.9210      0.00000
    486      86.0554      0.00000
    487      86.1156      0.00000
    488      86.2230      0.00000
    489      86.2356      0.00000
    490      86.3921      0.00000
    491      86.4883      0.00000
    492      86.6253      0.00000
    493      86.7925      0.00000
    494      86.9133      0.00000
    495      87.1425      0.00000
    496      87.3221      0.00000
    497      87.4388      0.00000
    498      87.5147      0.00000
    499      87.5370      0.00000
    500      87.8140      0.00000
    501      88.1076      0.00000
    502      88.2583      0.00000
    503      88.2939      0.00000
    504      88.4553      0.00000
    505      88.6173      0.00000
    506      88.6258      0.00000
    507      88.8216      0.00000
    508      88.9306      0.00000
    509      90.0610      0.00000
    510      90.6244      0.00000
    511      90.8020      0.00000
    512      91.0952      0.00000
    513      91.3276      0.00000
    514      91.5064      0.00000
    515      91.5576      0.00000
    516      91.8014      0.00000
    517      91.9074      0.00000
    518      92.0495      0.00000
    519      92.1113      0.00000
    520      92.2368      0.00000
    521      92.3507      0.00000
    522      92.5955      0.00000
    523      92.6853      0.00000
    524      92.8250      0.00000
    525      92.8920      0.00000
    526      93.1102      0.00000
    527      93.1791      0.00000
    528      93.2595      0.00000
    529      93.3395      0.00000
    530      93.4707      0.00000
    531      93.5615      0.00000
    532      93.5817      0.00000
    533      93.8650      0.00000
    534      94.2171      0.00000
    535      94.3228      0.00000
    536      94.4446      0.00000
    537      94.5164      0.00000
    538      94.7886      0.00000
    539      94.8832      0.00000
    540      94.9519      0.00000
    541      95.0449      0.00000
    542      95.2061      0.00000
    543      95.2949      0.00000
    544      95.4360      0.00000
    545      95.4985      0.00000
    546      95.5665      0.00000
    547      95.7369      0.00000
    548      95.7664      0.00000
    549      95.8286      0.00000
    550      95.8657      0.00000
    551      96.0581      0.00000
    552      96.2205      0.00000
    553      96.2672      0.00000
    554      96.3728      0.00000
    555      96.4268      0.00000
    556      96.5477      0.00000
    557      96.5877      0.00000
    558      96.7027      0.00000
    559      96.7811      0.00000
    560      96.8371      0.00000
    561      96.8713      0.00000
    562      97.0017      0.00000
    563      97.0113      0.00000
    564      97.1755      0.00000
    565      97.2078      0.00000
    566      97.4628      0.00000
    567      97.5127      0.00000
    568      97.6246      0.00000
    569      97.7061      0.00000
    570      98.1219      0.00000
    571      98.1555      0.00000
    572      98.2724      0.00000
    573      98.3210      0.00000
    574      98.5320      0.00000
    575      98.7176      0.00000
    576      98.8027      0.00000
    577      98.9447      0.00000
    578      99.1076      0.00000
    579      99.1762      0.00000
    580      99.2019      0.00000
    581      99.3119      0.00000
    582      99.4576      0.00000
    583      99.5168      0.00000
    584      99.5962      0.00000
    585      99.8074      0.00000
    586      99.8845      0.00000
    587     100.0311      0.00000
    588     100.4018      0.00000
    589     100.4987      0.00000
    590     100.5785      0.00000
    591     100.5951      0.00000
    592     100.9992      0.00000
    593     101.0492      0.00000
    594     101.4724      0.00000
    595     101.6242      0.00000
    596     101.8267      0.00000
    597     102.1027      0.00000
    598     102.4423      0.00000
    599     102.4967      0.00000
    600     102.5533      0.00000
    601     102.9201      0.00000
    602     103.0195      0.00000
    603     103.0754      0.00000
    604     103.2024      0.00000
    605     103.6046      0.00000
    606     103.7427      0.00000
    607     103.9679      0.00000
    608     104.1720      0.00000
    609     104.3177      0.00000
    610     104.6115      0.00000
    611     104.7734      0.00000
    612     104.9824      0.00000
    613     105.1362      0.00000
    614     105.5207      0.00000
    615     105.6175      0.00000
    616     105.6977      0.00000
    617     105.9709      0.00000
    618     106.1510      0.00000
    619     106.2255      0.00000
    620     106.2596      0.00000
    621     106.4892      0.00000
    622     106.5546      0.00000
    623     106.5984      0.00000
    624     106.8395      0.00000
    625     106.9373      0.00000
    626     107.1171      0.00000
    627     107.2804      0.00000
    628     107.4402      0.00000
    629     107.5398      0.00000
    630     107.5610      0.00000
    631     107.6124      0.00000
    632     107.7843      0.00000
    633     107.8983      0.00000
    634     108.1015      0.00000
    635     108.1931      0.00000
    636     108.3046      0.00000
    637     108.6363      0.00000
    638     108.7200      0.00000
    639     108.9449      0.00000
    640     109.1390      0.00000
    641     109.2442      0.00000
    642     109.3136      0.00000
    643     109.5455      0.00000
    644     109.6263      0.00000
    645     109.8133      0.00000
    646     110.2123      0.00000
    647     110.4680      0.00000
    648     110.5268      0.00000
    649     110.8125      0.00000
    650     110.9162      0.00000
    651     111.0997      0.00000
    652     111.2005      0.00000
    653     111.4331      0.00000
    654     111.6915      0.00000
    655     111.9348      0.00000
    656     112.0912      0.00000
    657     112.3670      0.00000
    658     112.6010      0.00000
    659     113.1332      0.00000
    660     113.2484      0.00000
    661     113.4951      0.00000
    662     113.8117      0.00000
    663     114.2298      0.00000
    664     114.4215      0.00000
    665     114.5485      0.00000
    666     114.7286      0.00000
    667     114.7513      0.00000
    668     114.8863      0.00000
    669     115.0504      0.00000
    670     115.1507      0.00000
    671     115.2614      0.00000
    672     115.3936      0.00000
    673     115.5811      0.00000
    674     115.6311      0.00000
    675     115.7595      0.00000
    676     115.8997      0.00000
    677     116.1197      0.00000
    678     116.2513      0.00000
    679     116.2833      0.00000
    680     116.5118      0.00000
    681     116.5567      0.00000
    682     116.7222      0.00000
    683     116.8386      0.00000
    684     117.0236      0.00000
    685     117.0601      0.00000
    686     117.2117      0.00000
    687     117.3366      0.00000
    688     117.4830      0.00000
    689     117.5370      0.00000
    690     117.6800      0.00000
    691     117.7374      0.00000
    692     117.7841      0.00000
    693     117.9005      0.00000
    694     118.1839      0.00000
    695     118.2438      0.00000
    696     118.4300      0.00000
    697     118.5123      0.00000
    698     118.7280      0.00000
    699     118.8336      0.00000
    700     118.9701      0.00000
    701     119.0949      0.00000
    702     119.1745      0.00000
    703     119.2467      0.00000
    704     119.3672      0.00000
    705     119.5424      0.00000
    706     119.6088      0.00000
    707     119.7816      0.00000
    708     119.9537      0.00000
    709     120.0334      0.00000
    710     120.3038      0.00000
    711     120.4104      0.00000
    712     120.4856      0.00000
    713     120.5503      0.00000
    714     120.6079      0.00000
    715     120.7433      0.00000
    716     120.9985      0.00000
    717     121.0930      0.00000
    718     121.2536      0.00000
    719     121.4554      0.00000
    720     121.7098      0.00000
    721     121.8893      0.00000
    722     121.9117      0.00000
    723     122.1589      0.00000
    724     122.3699      0.00000
    725     122.4473      0.00000
    726     122.4990      0.00000
    727     122.8475      0.00000
    728     122.8517      0.00000
    729     122.9863      0.00000
    730     123.1947      0.00000
    731     123.3982      0.00000
    732     123.9910      0.00000
    733     124.2092      0.00000
    734     124.3512      0.00000
    735     124.6679      0.00000
    736     124.9826      0.00000
    737     125.8627      0.00000
    738     126.0087      0.00000
    739     127.6969      0.00000
    740     129.3998      0.00000
    741     129.4935      0.00000
    742     129.5902      0.00000
    743     129.9777      0.00000
    744     130.1163      0.00000
    745     130.1314      0.00000
    746     130.3772      0.00000
    747     130.5619      0.00000
    748     130.6479      0.00000
    749     130.9862      0.00000
    750     131.0896      0.00000
    751     131.2710      0.00000
    752     131.4721      0.00000
    753     131.5878      0.00000
    754     131.7708      0.00000
    755     132.0826      0.00000
    756     132.1323      0.00000
    757     132.4372      0.00000
    758     132.9094      0.00000
    759     133.0846      0.00000
    760     133.6864      0.00000
    761     133.9964      0.00000
    762     134.0652      0.00000
    763     134.4983      0.00000
    764     134.7284      0.00000
    765     135.0820      0.00000
    766     135.4969      0.00000
    767     135.9102      0.00000
    768     136.0452      0.00000
    769     136.2073      0.00000
    770     136.8830      0.00000
    771     137.1207      0.00000
    772     137.5585      0.00000
    773     137.7609      0.00000
    774     138.1708      0.00000
    775     138.8647      0.00000
    776     139.7311      0.00000
    777     140.4172      0.00000
    778     142.1141      0.00000
    779     143.8922      0.00000
    780     147.9203      0.00000
    781     108.8024      0.00000
    782     110.0573      0.00000
    783     111.3429      0.00000
    784     112.3258      0.00000
    785     112.3652      0.00000
    786     112.6583      0.00000
    787     112.8781      0.00000
    788     112.9629      0.00000
    789     112.9749      0.00000
    790     113.3130      0.00000
    791     113.3483      0.00000
    792     113.5082      0.00000
    793     113.6479      0.00000
    794     113.7894      0.00000
    795     114.1209      0.00000
    796     114.1681      0.00000
    797     114.4918      0.00000
    798     114.5722      0.00000
    799     114.6272      0.00000
    800     115.0571      0.00000
    801     115.3138      0.00000
    802     115.3681      0.00000
    803     115.4820      0.00000
    804     115.6136      0.00000
    805     115.6550      0.00000
    806     115.6890      0.00000
    807     116.2833      0.00000
    808     116.4245      0.00000
    809     116.4436      0.00000
    810     116.4839      0.00000
    811     117.0083      0.00000
    812     117.1601      0.00000
    813     117.2179      0.00000
    814     117.2746      0.00000
    815     117.6163      0.00000
    816     117.9929      0.00000
    817     118.1720      0.00000
    818     118.4096      0.00000
    819     118.6783      0.00000
    820     118.8301      0.00000
    821     119.0555      0.00000
    822     119.1386      0.00000
    823     119.1587      0.00000
    824     119.2054      0.00000
    825     119.4686      0.00000
    826     119.7407      0.00000
    827     119.9860      0.00000
    828     120.0497      0.00000
    829     120.1270      0.00000
    830     120.3300      0.00000
    831     120.4313      0.00000
    832     120.4367      0.00000
    833     120.5844      0.00000
    834     121.5472      0.00000
    835     121.7856      0.00000
    836     121.9862      0.00000
    837     122.5416      0.00000
    838     122.5673      0.00000
    839     122.8319      0.00000
    840     122.9724      0.00000
    841     123.4363      0.00000
    842     123.4721      0.00000
    843     123.6177      0.00000
    844     123.6230      0.00000
    845     123.6986      0.00000
    846     123.8005      0.00000
    847     124.2477      0.00000
    848     124.8164      0.00000
    849     124.9726      0.00000
    850     125.2091      0.00000
    851     125.3279      0.00000
    852     125.5171      0.00000
    853     125.5661      0.00000
    854     126.0511      0.00000
    855     126.1259      0.00000
    856     126.1781      0.00000
    857     126.5713      0.00000
    858     126.6233      0.00000
    859     126.6544      0.00000
    860     126.7178      0.00000
    861     126.7322      0.00000
    862     127.1503      0.00000
    863     127.3336      0.00000
    864     127.4975      0.00000
    865     127.6443      0.00000
    866     127.6509      0.00000
    867     127.7611      0.00000
    868     127.7732      0.00000
    869     127.9907      0.00000
    870     128.3360      0.00000
    871     128.4986      0.00000
    872     128.5331      0.00000
    873     128.5980      0.00000
    874     128.6204      0.00000
    875     128.7011      0.00000
    876     128.7639      0.00000
    877     128.8201      0.00000
    878     128.8623      0.00000
    879     128.8828      0.00000
    880     129.0936      0.00000
    881     129.7882      0.00000
    882     129.9070      0.00000
    883     130.2636      0.00000
    884     130.2702      0.00000
    885     130.4210      0.00000
    886     130.4614      0.00000
    887     130.5138      0.00000
    888     130.7601      0.00000
    889     130.7676      0.00000
    890     131.0304      0.00000
    891     131.1938      0.00000
    892     131.3313      0.00000
    893     131.5050      0.00000
    894     131.6992      0.00000
    895     131.7257      0.00000
    896     131.9463      0.00000
    897     132.0580      0.00000
    898     132.1676      0.00000
    899     132.3009      0.00000
    900     132.3131      0.00000
    901     132.4162      0.00000
    902     132.4401      0.00000
    903     132.4709      0.00000
    904     132.6044      0.00000
    905     133.2705      0.00000
    906     133.3707      0.00000
    907     133.4790      0.00000
    908     133.6500      0.00000
    909     133.7079      0.00000
    910     133.8873      0.00000
    911     134.0834      0.00000
    912     134.2532      0.00000
    913     134.4926      0.00000
    914     134.7016      0.00000
    915     134.9324      0.00000
    916     135.0120      0.00000
    917     135.0147      0.00000
    918     135.1954      0.00000
    919     135.2897      0.00000
    920     135.4364      0.00000
    921     135.4916      0.00000
    922     135.6663      0.00000
    923     136.0001      0.00000
    924     136.0293      0.00000
    925     136.0746      0.00000
    926     136.3868      0.00000
    927     136.4848      0.00000
    928     136.5338      0.00000
    929     136.5397      0.00000
    930     136.5429      0.00000
    931     136.7157      0.00000
    932     136.8555      0.00000
    933     136.9202      0.00000
    934     136.9403      0.00000
    935     137.0733      0.00000
    936     137.2768      0.00000
    937     137.5487      0.00000
    938     137.5511      0.00000
    939     137.7201      0.00000
    940     137.7546      0.00000
    941     137.9032      0.00000
    942     138.0207      0.00000
    943     138.1027      0.00000
    944     138.1180      0.00000
    945     138.1682      0.00000
    946     138.3208      0.00000
    947     138.5376      0.00000
    948     138.6548      0.00000
    949     139.4195      0.00000
    950     139.4257      0.00000
    951     139.4623      0.00000
    952     139.5188      0.00000
    953     139.8242      0.00000
    954     139.9585      0.00000
    955     140.1243      0.00000
    956     140.5163      0.00000
    957     142.2007      0.00000
    958     142.3924      0.00000
    959     142.6213      0.00000
    960     143.8831      0.00000


--------------------------------------------------------------------------------------------------------


 soft charge-density along one line, spin component           1
         0         1         2         3         4         5         6         7         8         9
 total charge-density along one line
 
 pseudopotential strength for first ion, spin component:           1
 14.418 -16.702  -0.027  -0.027  -0.027   0.086   0.086   0.086
-16.702  52.819   0.009   0.009   0.009  -0.023  -0.023  -0.023
 -0.027   0.009   3.360   0.001   0.001  -9.837  -0.002  -0.002
 -0.027   0.009   0.001   3.360   0.001  -0.002  -9.837  -0.002
 -0.027   0.009   0.001   0.001   3.360  -0.002  -0.002  -9.837
  0.086  -0.023  -9.837  -0.002  -0.002  31.364   0.006   0.006
  0.086  -0.023  -0.002  -9.837  -0.002   0.006  31.364   0.006
  0.086  -0.023  -0.002  -0.002  -9.837   0.006   0.006  31.364
  0.001   0.000  -0.009  -0.004  -0.009   0.017   0.007   0.017
  0.001   0.000  -0.009  -0.009  -0.004   0.017   0.017   0.007
 -0.000  -0.000   0.006  -0.012   0.006  -0.011   0.023  -0.011
  0.001   0.000  -0.004  -0.009  -0.009   0.007   0.017   0.017
  0.000   0.000   0.010  -0.000  -0.010  -0.020   0.000   0.020
 -0.007   0.004   0.046   0.017   0.046  -0.125  -0.044  -0.125
 -0.007   0.004   0.046   0.046   0.017  -0.125  -0.125  -0.044
  0.000  -0.000  -0.030   0.061  -0.030   0.081  -0.162   0.081
 -0.007   0.004   0.017   0.046   0.046  -0.044  -0.125  -0.125
 -0.000   0.000  -0.053   0.000   0.053   0.140  -0.000  -0.140
 total augmentation occupancy for first ion, spin component:           1
  1.666   0.041   0.224   0.224   0.224   0.003   0.003   0.003  -0.025  -0.025   0.000  -0.025  -0.000  -0.000  -0.000  -0.000
  0.041   0.001  -0.005  -0.005  -0.005  -0.000  -0.000  -0.000  -0.001  -0.001  -0.000  -0.001   0.000  -0.000  -0.000  -0.000
  0.224  -0.005   1.187  -0.031  -0.031   0.047  -0.004  -0.004  -0.063  -0.063   0.007   0.140   0.012  -0.000  -0.000   0.000
  0.224  -0.005  -0.031   1.187  -0.031  -0.004   0.047  -0.004   0.140  -0.063  -0.013  -0.063  -0.000   0.000  -0.000  -0.000
  0.224  -0.005  -0.031  -0.031   1.187  -0.004  -0.004   0.047  -0.063   0.140   0.007  -0.063  -0.012  -0.000   0.000   0.000
  0.003  -0.000   0.047  -0.004  -0.004   0.002  -0.000  -0.000  -0.003  -0.003   0.000   0.006   0.001  -0.000  -0.000   0.000
  0.003  -0.000  -0.004   0.047  -0.004  -0.000   0.002  -0.000   0.006  -0.003  -0.001  -0.003  -0.000   0.000  -0.000  -0.000
  0.003  -0.000  -0.004  -0.004   0.047  -0.000  -0.000   0.002  -0.003   0.006   0.000  -0.003  -0.001  -0.000   0.000   0.000
 -0.025  -0.001  -0.063   0.140  -0.063  -0.003   0.006  -0.003   0.025  -0.011  -0.002  -0.011  -0.000   0.000  -0.000   0.000
 -0.025  -0.001  -0.063  -0.063   0.140  -0.003  -0.003   0.006  -0.011   0.025   0.001  -0.011  -0.002  -0.000   0.000  -0.000
  0.000  -0.000   0.007  -0.013   0.007   0.000  -0.001   0.000  -0.002   0.001   0.002   0.001  -0.000   0.000  -0.000   0.000
 -0.025  -0.001   0.140  -0.063  -0.063   0.006  -0.003  -0.003  -0.011  -0.011   0.001   0.025   0.002  -0.000  -0.000  -0.000
 -0.000   0.000   0.012  -0.000  -0.012   0.001  -0.000  -0.001  -0.000  -0.002  -0.000   0.002   0.002  -0.000   0.000   0.000
 -0.000  -0.000  -0.000   0.000  -0.000  -0.000   0.000  -0.000   0.000  -0.000   0.000  -0.000  -0.000   0.000  -0.000   0.000
 -0.000  -0.000  -0.000  -0.000   0.000  -0.000  -0.000   0.000  -0.000   0.000  -0.000  -0.000   0.000  -0.000   0.000  -0.000
 -0.000  -0.000   0.000  -0.000   0.000   0.000  -0.000   0.000   0.000  -0.000   0.000  -0.000   0.000   0.000  -0.000   0.000
 -0.000  -0.000   0.000  -0.000  -0.000   0.000  -0.000  -0.000  -0.000  -0.000  -0.000   0.000  -0.000  -0.000  -0.000  -0.000
  0.000   0.000   0.000  -0.000  -0.000   0.000  -0.000  -0.000  -0.000   0.000   0.000  -0.000   0.000  -0.000   0.000   0.000


------------------------ aborting loop because EDIFF is reached ----------------------------------------


    CHARGE:  cpu time    0.0227: real time    0.0228
    FORLOC:  cpu time    0.0025: real time    0.0025
    FORHF :  cpu time    0.2490: real time    0.2502
    FORNL :  cpu time    0.0618: real time    0.0622
    FORCOR:  cpu time    0.1258: real time    0.1262
    FORHAR:  cpu time    0.0299: real time    0.0303
    MIXING:  cpu time    0.0000: real time    0.0000
    OFIELD:  cpu time    0.0001: real time    0.0002

 VOLUME and BASIS-vectors are now :
 -----------------------------------------------------------------------------
  energy-cutoff  :      400.00
  volume of cell :      327.28
      direct lattice vectors                 reciprocal lattice vectors
     5.469713400  5.469713400  0.000000000     0.091412468  0.091412468 -0.091412468
     0.000000000  5.469713400  5.469713400    -0.091412468  0.091412468  0.091412468
     5.469713400  0.000000000  5.469713400     0.091412468 -0.091412468  0.091412468

  length of vectors
     7.735342873  7.735342873  7.735342873     0.158331039  0.158331039  0.158331039


 FORCES acting on ions
    electron-ion (+dipol)            ewald-force                    non-local-force                 convergence-correction
 -----------------------------------------------------------------------------------------------
   -.131E+02 -.131E+02 -.131E+02   0.189E+02 0.189E+02 0.189E+02   -.597E+01 -.597E+01 -.597E+01   0.284E-03 0.266E-03 0.231E-03
   0.209E+02 0.209E+02 -.210E+02   -.189E+02 -.189E+02 0.189E+02   -.444E+00 -.444E+00 0.134E+01   -.166E-03 -.179E-03 0.318E-05
   -.210E+02 0.209E+02 0.209E+02   0.189E+02 -.189E+02 -.189E+02   0.134E+01 -.443E+00 -.443E+00   0.957E-05 -.135E-03 -.155E-03
   -.185E+01 0.924E+00 -.185E+01   0.122E+01 -.122E+01 0.122E+01   0.411E+00 0.487E+00 0.411E+00   0.179E-03 -.110E-03 0.229E-03
   0.209E+02 -.210E+02 0.209E+02   -.189E+02 0.189E+02 -.189E+02   -.443E+00 0.134E+01 -.443E+00   -.137E-03 0.800E-05 -.171E-03
   0.924E+00 -.185E+01 -.185E+01   -.122E+01 0.122E+01 0.122E+01   0.487E+00 0.411E+00 0.411E+00   -.109E-03 0.180E-03 0.213E-03
   -.185E+01 -.185E+01 0.924E+00   0.122E+01 0.122E+01 -.122E+01   0.411E+00 0.411E+00 0.487E+00   0.207E-03 0.225E-03 -.114E-03
   0.174E+01 0.174E+01 0.174E+01   -.122E+01 -.122E+01 -.122E+01   -.296E+00 -.296E+00 -.296E+00   -.248E-03 -.234E-03 -.211E-03
   0.993E-01 0.993E-01 0.203E+01   0.199E-11 0.201E-11 -.138E+01   -.625E+00 -.625E+00 0.441E+00   -.214E-04 -.387E-04 0.406E-03
   0.203E+01 0.992E-01 0.993E-01   -.138E+01 0.203E-11 0.202E-11   0.441E+00 -.625E+00 -.625E+00   0.394E-03 0.634E-05 -.308E-04
   -.702E+00 -.329E+01 -.702E+00   -.104E-11 0.138E+01 -.106E-11   0.218E+00 0.737E+00 0.218E+00   -.136E-03 -.229E-03 -.104E-03
   0.992E-01 0.203E+01 0.993E-01   0.203E-11 -.138E+01 0.201E-11   -.625E+00 0.441E+00 -.625E+00   0.842E-05 0.396E-03 -.461E-04
   -.329E+01 -.702E+00 -.702E+00   0.138E+01 -.105E-11 -.103E-11   0.737E+00 0.218E+00 0.218E+00   -.231E-03 -.138E-03 -.118E-03
   -.702E+00 -.702E+00 -.329E+01   -.105E-11 -.103E-11 0.138E+01   0.218E+00 0.218E+00 0.737E+00   -.108E-03 -.956E-04 -.223E-03
   0.409E+00 0.409E+00 0.409E+00   0.439E-12 0.470E-12 0.439E-12   -.372E-01 -.372E-01 -.372E-01   0.136E-03 0.153E-03 0.189E-03
 -----------------------------------------------------------------------------------------------
   0.472E+01 0.472E+01 0.472E+01   0.104E-13 0.561E-14 0.102E-13   -.417E+01 -.417E+01 -.417E+01   0.613E-04 0.751E-04 0.985E-04
 
 
 POSITION                                       TOTAL-FORCE (eV/Angst)
 -----------------------------------------------------------------------------------
      0.01500      0.01500      0.01500        -0.650005     -0.650016     -0.649998
      2.71985      2.71985      0.01500         1.273332      1.273265     -0.362269
      0.01500      2.71985      2.71985        -0.362350      1.273289      1.273174
      2.73486      5.46971      2.73486        -0.164300      0.248748     -0.164309
      2.71985      0.01500      2.71985         1.273348     -0.362324      1.273167
      5.46971      2.73486      2.73486         0.248745     -0.164311     -0.164314
      2.73486      2.73486      5.46971        -0.164299     -0.164303      0.248772
      5.46971      5.46971      5.46971         0.178047      0.178059      0.178077
      4.10229      4.10229      1.36973        -0.594894     -0.594864      1.098792
      1.36973      4.10229      4.10229         1.098801     -0.594835     -0.594829
      4.10229      6.83484      4.10229        -0.462411     -0.989958     -0.462327
      4.10229      1.36973      4.10229        -0.594863      1.098800     -0.594828
      6.83484      4.10229      4.10229        -0.989963     -0.462384     -0.462333
      4.10229      4.10229      6.83484        -0.462400     -0.462367     -0.989949
      6.83714      6.83714      6.83714         0.373212      0.373200      0.373173
 -----------------------------------------------------------------------------------
    total drift:                               -0.000252     -0.000244     -0.000231


--------------------------------------------------------------------------------------------------------



  FREE ENERGIE OF THE ION-ELECTRON SYSTEM (eV)
  ---------------------------------------------------
  free  energy   TOTEN  =      -131.32641346 eV

  energy  without entropy=     -131.32641346  energy(sigma->0) =     -131.32641346
 


--------------------------------------------------------------------------------------------------------


    POTLOK:  cpu time    0.1383: real time    0.1391


--------------------------------------------------------------------------------------------------------


 writing wavefunctions
     LOOP+:  cpu time   24.6439: real time   24.7326
    4ORBIT:  cpu time    0.0000: real time    0.0000

 total amount of memory used by VASP MPI-rank0   180202. kBytes
=======================================================================

   base      :      30000. kBytes
   nonl-proj :       1179. kBytes
   fftplans  :        513. kBytes
   grid      :       2897. kBytes
   one-center:        116. kBytes
   HF        :         64. kBytes
   nonlr-proj:       7415. kBytes
   wavefun   :        261. kBytes
   fock_wrk  :     137757. kBytes
 
  
  
 General timing and accounting informations for this job:
 ========================================================
  
                  Total CPU time used (sec):       30.431
                            User time (sec):       21.464
                          System time (sec):        8.966
                         Elapsed time (sec):       31.167
  
                   Maximum memory used (kb):     1700908.
                   Average memory used (kb):          N/A
  
                          Minor page faults:       422741
                          Major page faults:            0
                 Voluntary context switches:         1729
