 vasp.6.2.0 18Jan21 (build Nov 12 2021 22:59:13) gamma-only                     
  
 executed on             LinuxIFC date 2022.02.17  13:55:49
 running on  192 total cores
 distrk:  each k-point on  192 cores,    1 groups
 distr:  one band on NCORE=   1 cores,  192 groups


--------------------------------------------------------------------------------------------------------


 INCAR:
   ENCUT = 400
   SIGMA = 0.0001
   EDIFF = 1E-6
   LHFCALC = .TRUE.
   AEXX = 1.0
   ISYM = -1
   ALGO = sub
   NELM = 1
   NBANDS = 832
   NBANDSHIGH = 832

 POTCAR:    PAW Si_GW 04May2012                   
 -----------------------------------------------------------------------------
|                                                                             |
|           W    W    AA    RRRRR   N    N  II  N    N   GGGG   !!!           |
|           W    W   A  A   R    R  NN   N  II  NN   N  G    G  !!!           |
|           W    W  A    A  R    R  N N  N  II  N N  N  G       !!!           |
|           W WW W  AAAAAA  RRRRR   N  N N  II  N  N N  G  GGG   !            |
|           WW  WW  A    A  R   R   N   NN  II  N   NN  G    G                |
|           W    W  A    A  R    R  N    N  II  N    N   GGGG   !!!           |
|                                                                             |
|     For optimal performance we recommend to set                             |
|       NCORE = 2 up to number-of-cores-per-socket                            |
|     NCORE specifies how many cores store one orbital (NPAR=cpu/NCORE).      |
|     This setting can greatly improve the performance of VASP for DFT.       |
|     The default, NCORE=1 might be grossly inefficient on modern             |
|     multi-core architectures or massively parallel machines. Do your        |
|     own testing! More info at https://www.vasp.at/wiki/index.php/NCORE      |
|     Unfortunately you need to use the default for GW and RPA                |
|     calculations (for HF NCORE is supported but not extensively tested      |
|     yet).                                                                   |
|                                                                             |
 -----------------------------------------------------------------------------

 POTCAR:    PAW Si_GW 04May2012                   
   VRHFIN =Si: s2p2                                                                                 
   LEXCH  = PE                                                                                      
   EATOM  =   103.0669 eV,    7.5752 Ry                                                             
                                                                                                    
   TITEL  = PAW Si_GW 04May2012                                                                     
   LULTRA =        F    use ultrasoft PP ?                                                          
   IUNSCR =        1    unscreen: 0-lin 1-nonlin 2-no                                               
   RPACOR =    1.500    partial core radius                                                         
   POMASS =   28.085; ZVAL   =    4.000    mass and valenz                                          
   RCORE  =    1.900    outmost cutoff radius                                                       
   RWIGS  =    2.480; RWIGS  =    1.312    wigner-seitz radius (au A)                               
   ENMAX  =  245.345; ENMIN  =  184.009 eV                                                          
   ICORE  =        3    local potential                                                             
   LCOR   =        T    correct aug charges                                                         
   LPAW   =        T    paw PP                                                                      
   EAUG   =  412.952                                                                                
   DEXC   =    0.000                                                                                
   RMAX   =    1.950    core radius for proj-oper                                                   
   RAUG   =    1.300    factor for augmentation sphere                                              
   RDEP   =    1.993    radius for radial grids                                                     
   RDEPT  =    2.000    core radius for aug-charge                                                  
                                                                                                    
   Atomic configuration                                                                             
    7 entries                                                                                       
     n  l   j            E        occ.                                                              
     1  0  0.50     -1785.8828   2.0000                                                             
     2  0  0.50      -139.4969   2.0000                                                             
     2  1  1.50       -95.5546   6.0000                                                             
     3  0  0.50       -10.8127   2.0000                                                             
     3  1  0.50        -4.0811   2.0000                                                             
     3  2  1.50        -4.0817   0.0000                                                             
     4  3  2.50        -4.0817   0.0000                                                             
   Description                                                                                      
     l       E           TYP  RCUT    TYP  RCUT                                                     
     0    -10.8127223     23  1.900                                                                 
     0     95.2407820     23  1.900                                                                 
     1     -4.0811372     23  1.900                                                                 
     1     54.4233040     23  1.900                                                                 
     2     -8.1634956     23  1.900                                                                 
     2     81.6349560     23  1.900                                                                 
     3     27.2116520     23  1.900                                                                 
  local pseudopotential read in
  partial core-charges read in
  partial kinetic energy density read in
  kinetic energy density of atom read in
  atomic valenz-charges read in
  non local Contribution for L=           0  read in
    real space projection operators read in
  non local Contribution for L=           0  read in
    real space projection operators read in
  non local Contribution for L=           1  read in
    real space projection operators read in
  non local Contribution for L=           1  read in
    real space projection operators read in
  non local Contribution for L=           2  read in
    real space projection operators read in
  non local Contribution for L=           2  read in
    real space projection operators read in
    PAW grid and wavefunctions read in
 
   number of l-projection  operators is LMAX  =           6
   number of lm-projection operators is LMMAX =          18
 
  PAW Si_GW 04May2012                   :
 energy of atom  1       EATOM= -103.0669
 kinetic energy error for atom=    0.0012 (will be added to EATOM!!)
 
 
 POSCAR: cd:
  positions in direct lattice
  velocities in cartesian coordinates
 exchange correlation table for  LEXCH =        8
   RHO(1)=    0.500       N(1)  =     2000
   RHO(2)=  100.500       N(2)  =     4000
 


--------------------------------------------------------------------------------------------------------


 ion  position               nearest neighbor table
   1  0.000  0.000  0.000-   9 2.37  10 2.37  11 2.37  13 2.37
   2  0.500  0.000  0.000-   9 2.37  10 2.37  12 2.37  14 2.37
   3  0.000  0.500  0.000-   9 2.37  11 2.37  12 2.37  15 2.37
   4  0.500  0.500  0.000-  10 2.37  11 2.37  12 2.37  16 2.37
   5  0.000  0.000  0.500-   9 2.37  13 2.37  14 2.37  15 2.37
   6  0.500  0.000  0.500-  10 2.37  13 2.37  14 2.37  16 2.37
   7  0.000  0.500  0.500-  11 2.37  13 2.37  15 2.37  16 2.37
   8  0.500  0.500  0.500-  12 2.37  14 2.37  15 2.37  16 2.37
   9  0.125  0.125  0.125-   1 2.37   2 2.37   3 2.37   5 2.37
  10  0.625  0.125  0.125-   1 2.37   2 2.37   4 2.37   6 2.37
  11  0.125  0.625  0.125-   1 2.37   3 2.37   4 2.37   7 2.37
  12  0.625  0.625  0.125-   2 2.37   3 2.37   4 2.37   8 2.37
  13  0.125  0.125  0.625-   1 2.37   5 2.37   6 2.37   7 2.37
  14  0.625  0.125  0.625-   2 2.37   5 2.37   6 2.37   8 2.37
  15  0.125  0.625  0.625-   3 2.37   5 2.37   7 2.37   8 2.37
  16  0.625  0.625  0.625-   4 2.37   6 2.37   7 2.37   8 2.37
 

IMPORTANT INFORMATION: All symmetrisations will be switched off!
NOSYMM: (Re-)initialisation of all symmetry stuff for point group C_1.


----------------------------------------------------------------------------------------

                                     Primitive cell                                     

  volume of cell :     327.2832

  direct lattice vectors                    reciprocal lattice vectors
     5.469713400  5.469713400  0.000000000     0.091412468  0.091412468 -0.091412468
     0.000000000  5.469713400  5.469713400    -0.091412468  0.091412468  0.091412468
     5.469713400  0.000000000  5.469713400     0.091412468 -0.091412468  0.091412468

  length of vectors
     7.735342873  7.735342873  7.735342873     0.158331039  0.158331039  0.158331039

  position of ions in fractional coordinates (direct lattice)
     0.000000000  0.000000000  0.000000000
     0.500000000  0.000000000  1.000000000
     0.000000000  0.500000000  1.000000000
     0.500000000  0.500000000  1.000000000
     0.000000000  1.000000000  0.500000000
     0.500000000  0.000000000  0.500000000
     0.000000000  0.500000000  0.500000000
     0.500000000  0.500000000  0.500000000
     0.125000000  0.125000000  0.125000000
     0.625000000  0.125000000  0.125000000
     0.125000000  0.625000000  0.125000000
     0.625000000  0.625000000  0.125000000
     0.125000000  0.125000000  0.625000000
     0.625000000  0.125000000  0.625000000
     0.125000000  0.625000000  0.625000000
     0.625000000  0.625000000  0.625000000

  ion indices of the primitive-cell ions
   primitive index   ion index
                 1           1
                 2           2
                 3           3
                 4           4
                 5           5
                 6           6
                 7           7
                 8           8
                 9           9
                10          10
                11          11
                12          12
                13          13
                14          14
                15          15
                16          16

----------------------------------------------------------------------------------------

 
 
 KPOINTS: Automatic mesh                          

Automatic generation of k-mesh.
 Grid dimensions read from file:
 generate k-points for:    1    1    1

 Generating k-lattice:

  Cartesian coordinates                     Fractional coordinates (reciprocal lattice)
     0.091412468  0.091412468 -0.091412468     1.000000000  0.000000000  0.000000000
    -0.091412468  0.091412468  0.091412468     0.000000000  1.000000000 -0.000000000
     0.091412468 -0.091412468  0.091412468    -0.000000000 -0.000000000  1.000000000

  Length of vectors
     0.158331039  0.158331039  0.158331039

  Shift w.r.t. Gamma in fractional coordinates (k-lattice)
     0.000000000  0.000000000  0.000000000

 
 Subroutine IBZKPT returns following result:
 ===========================================
 
 Found      1 irreducible k-points:
 
 Following reciprocal coordinates:
            Coordinates               Weight
  0.000000  0.000000  0.000000      1.000000
 
 Following cartesian coordinates:
            Coordinates               Weight
  0.000000  0.000000  0.000000      1.000000
 
 WARNING: full set of k-points will be restricted to regular points only.

 
 Subroutine IBZKPT_HF returns following result:
 ==============================================
 
 Found      1 k-points in 1st BZ
 the following      1 k-points will be used (e.g. in the exchange kernel)
 Following reciprocal coordinates:   # in IRBZ
  0.000000  0.000000  0.000000    1.00000000   1 t-inv F
 -----------------------------------------------------------------------------
|                                                                             |
|           W    W    AA    RRRRR   N    N  II  N    N   GGGG   !!!           |
|           W    W   A  A   R    R  NN   N  II  NN   N  G    G  !!!           |
|           W    W  A    A  R    R  N N  N  II  N N  N  G       !!!           |
|           W WW W  AAAAAA  RRRRR   N  N N  II  N  N N  G  GGG   !            |
|           WW  WW  A    A  R   R   N   NN  II  N   NN  G    G                |
|           W    W  A    A  R    R  N    N  II  N    N   GGGG   !!!           |
|                                                                             |
|     The number of bands has been changed from the values supplied in        |
|     the INCAR file. This is a result of running the parallel version.       |
|     The orbitals not found in the WAVECAR file will be initialized with     |
|     random numbers, which is usually adequate. For correlated               |
|     calculations, however, you should redo the groundstate calculation.     |
|     I found NBANDS = 832. Now, NBANDS = 960.                                |
|                                                                             |
 -----------------------------------------------------------------------------



--------------------------------------------------------------------------------------------------------




 Dimension of arrays:
   k-points           NKPTS =      1   k-points in BZ     NKDIM =      1   number of bands    NBANDS=    960
   number of dos      NEDOS =    301   number of ions     NIONS =     16
   non local maximal  LDIM  =      6   non local SUM 2l+1 LMDIM =     18
   total plane-waves  NPLWV =  64000
   max r-space proj   IRMAX =      1   max aug-charges    IRDMAX=   9797
   dimension x,y,z NGX =    40 NGY =   40 NGZ =   40
   dimension x,y,z NGXF=    80 NGYF=   80 NGZF=   80
   support grid    NGXF=    80 NGYF=   80 NGZF=   80
   ions per type =              16
   lowest and highest band optimized NBANDSLOW=      -1 NBANDSHIGH=     832
   NGX,Y,Z   is equivalent  to a cutoff of   8.60,  8.60,  8.60 a.u.
   NGXF,Y,Z  is equivalent  to a cutoff of  17.19, 17.19, 17.19 a.u.

 SYSTEM =  unknown system                          
 POSCAR =  cd:                                     

 Startparameter for this run:
   NWRITE =      2    write-flag & timer
   PREC   = normal    normal or accurate (medium, high low for compatibility)
   ISTART =      1    job   : 0-new  1-cont  2-samecut
   ICHARG =      0    charge: 1-file 2-atom 10-const
   ISPIN  =      1    spin polarized calculation?
   LNONCOLLINEAR =      F non collinear calculations
   LSORBIT =      F    spin-orbit coupling
   INIWAV =      1    electr: 0-lowe 1-rand  2-diag
   LASPH  =      F    aspherical Exc in radial PAW
   METAGGA=      F    non-selfconsistent MetaGGA calc.

 Electronic Relaxation 1
   ENCUT  =  400.0 eV  29.40 Ry    5.42 a.u.  12.61 12.61 12.61*2*pi/ulx,y,z
   ENINI  =  400.0     initial cutoff
   ENAUG  =  413.0 eV  augmentation charge cutoff
   NELM   =      1;   NELMIN=  2; NELMDL=  0     # of ELM steps 
   EDIFF  = 0.1E-05   stopping-criterion for ELM
   LREAL  =      F    real-space projection
   NLSPLINE    = F    spline interpolate recip. space projectors
   LCOMPAT=      F    compatible to vasp.4.4
   GGA_COMPAT  = T    GGA compatible to vasp.4.4-vasp.4.6
   LMAXPAW     = -100 max onsite density
   LMAXMIX     =    2 max onsite mixed and CHGCAR
   VOSKOWN=      0    Vosko Wilk Nusair interpolation
   ROPT   =    0.00000
 Ionic relaxation
   EDIFFG = 0.1E-04   stopping-criterion for IOM
   NSW    =      0    number of steps for IOM
   NBLOCK =      1;   KBLOCK =      1    inner block; outer block 
   IBRION =     -1    ionic relax: 0-MD 1-quasi-New 2-CG
   NFREE  =      0    steps in history (QN), initial steepest desc. (CG)
   ISIF   =      0    stress and relaxation
   IWAVPR =     10    prediction:  0-non 1-charg 2-wave 3-comb
   ISYM   =     -1    0-nonsym 1-usesym 2-fastsym
   LCORR  =      T    Harris-Foulkes like correction to forces

   POTIM  = 0.5000    time-step for ionic-motion
   TEIN   =    0.0    initial temperature
   TEBEG  =    0.0;   TEEND  =   0.0 temperature during run
   SMASS  =  -3.00    Nose mass-parameter (am)
   estimated Nose-frequenzy (Omega)   =  0.10E-29 period in steps = 0.13E+47 mass=  -0.137E-26a.u.
   SCALEE = 1.0000    scale energy and forces
   NPACO  =    256;   APACO  = 16.0  distance and # of slots for P.C.
   PSTRESS=    0.0 pullay stress

  Mass of Ions in am
   POMASS =  28.09
  Ionic Valenz
   ZVAL   =   4.00
  Atomic Wigner-Seitz radii
   RWIGS  =  -1.00
  virtual crystal weights 
   VCA    =   1.00
   NELECT =      64.0000    total number of electrons
   NUPDOWN=      -1.0000    fix difference up-down

 DOS related values:
   EMIN   =  10.00;   EMAX   =-10.00  energy-range for DOS
   EFERMI =   0.00
   ISMEAR =     1;   SIGMA  =   0.00  broadening in eV -4-tet -1-fermi 0-gaus

 Electronic relaxation 2 (details)
   IALGO  =      4    algorithm
   LDIAG  =      T    sub-space diagonalisation (order eigenvalues)
   LSUBROT=      F    optimize rotation matrix (better conditioning)
   TURBO    =      0    0=normal 1=particle mesh
   IRESTART =      0    0=no restart 2=restart with 2 vectors
   NREBOOT  =      0    no. of reboots
   NMIN     =      0    reboot dimension
   EREF     =   0.00    reference energy to select bands
   IMIX   =      1    mixing-type and parameters
     AMIX     =   0.40;   BMIX     =  1.00
     AMIX_MAG =   1.60;   BMIX_MAG =  1.00
     AMIN     =   0.10
     WC   =   100.;   INIMIX=   1;  MIXPRE=   1;  MAXMIX= -45

 Intra band minimization:
   WEIMIN = 0.0000     energy-eigenvalue tresh-hold
   EBREAK =  0.26E-09  absolut break condition
   DEPER  =   0.30     relativ break condition  

   TIME   =   0.40     timestep for ELM

  volume/ion in A,a.u.               =      20.46       138.04
  Fermi-wavevector in a.u.,A,eV,Ry     =   0.950226  1.795667 12.285102  0.902929
  Thomas-Fermi vector in A             =   2.078583
 
 Write flags
   LWAVE        =      T    write WAVECAR
   LDOWNSAMPLE  =      F    k-point downsampling of WAVECAR
   LCHARG       =      T    write CHGCAR
   LVTOT        =      F    write LOCPOT, total local potential
   LVHAR        =      F    write LOCPOT, Hartree potential only
   LELF         =      F    write electronic localiz. function (ELF)
   LORBIT       =      0    0 simple, 1 ext, 2 COOP (PROOUT), +10 PAW based schemes


 Dipole corrections
   LMONO  =      F    monopole corrections only (constant potential shift)
   LDIPOL =      F    correct potential (dipole corrections)
   IDIPOL =      0    1-x, 2-y, 3-z, 4-all directions 
   EPSILON=  1.0000000 bulk dielectric constant

 Exchange correlation treatment:
   GGA     =    --    GGA type
   LEXCH   =     8    internal setting for exchange type
   VOSKOWN=      0    Vosko Wilk Nusair interpolation
   EXXOEP  =     0    0=HF, 1=EXX-LHF (local Hartree Fock) 2=EXX OEP
   LHFCALC =     T    Hartree Fock is set to
   LSYMGRAD=     F    symmetrize gradient (conserves proper symmetry)
   PRECFOCK=normal    Normal, Fast or Accurate (Low or Medium for compatibility)
   LRHFCALC=     F    long range Hartree Fock
   LRSCOR  =     F    long range correlation only (use DFT for short range part)
   LTHOMAS =     F    Thomas Fermi screening in HF
   LMODELHF=     F    short range full HF, long range fraction AEXX
   LFOCKACE=     T    use Adeptively-Compressed-Exchange operator
   ENCUT4O =  -1.0   cutoff for four orbital integrals eV
   LMAXFOCK=     4    L truncation for augmentation on plane wave grid
   LMAXFOCKAE=  -1    L truncation for all-electron charge restoration on plane wave grid
   NMAXFOCKAE=   1    number of basis functions for all-electron charge restoration
   LFOCKAEDFT=     F  apply the AE augmentation even for DFT
   NKREDX  =     1    reduce k-point grid by
   NKREDY  =     1    reduce k-point grid by
   NKREDZ  =     1    reduce k-point grid by
   SHIFTRED=     F    shift reduced grid of Gamma
   HFKIDENT=     F    idential grid for each k-point
   ODDONLY =     F    use only odd q-grid points
   EVENONLY=     F    use only even q-grid points
   HFALPHA =   -1.0000 decay constant for conv. correction
   MCALPHA =    0.0000 extent of test-charge in conv. correction in multipole expansion
   AEXX    =    1.0000 exact exchange contribution
   HFSCREEN=    0.0000 screening length (either q_TF or 0.3 A-1)
   HFSCREENC=   0.0000 screening length for correlation (either q_TF or 0.3 A-1)
   HFRCUT  =    0.0000 spherical cutoff for potential kernel
   ALDAX   =    0.0000 LDA exchange part
   AGGAX   =    0.0000 GGA exchange part
   ALDAC   =    0.0000 LDA correlation
   AGGAC   =    0.0000 GGA correlation
   ENCUTFOCK=  -1.0 apply spherical cutoff to Coloumb kernel
   NBANDSGWLOW=     1    first orbital included in HF term
   NBLOCK_FOCK=    64    blocking factor in FOCK_ACC
 Linear response parameters
   LEPSILON=     F    determine dielectric tensor
   LRPA    =     F    only Hartree local field effects (RPA)
   LNABLA  =     F    use nabla operator in PAW spheres
   LVEL    =     F    velocity operator in full k-point grid
   LINTERFAST=   F  fast interpolation
   KINTER  =     0    interpolate to denser k-point grid
   CSHIFT  =0.1000    complex shift for real part using Kramers Kronig
   OMEGAMAX=  -1.0    maximum frequency
   DEG_THRESHOLD= 0.2000000E-02 threshold for treating states as degnerate
   RTIME   =   -0.100 relaxation time in fs
  (WPLASMAI=    0.000 imaginary part of plasma frequency in eV, 0.658/RTIME)
   DFIELD  = 0.0000000 0.0000000 0.0000000 field for delta impulse in time
 
 Orbital magnetization related:
   ORBITALMAG=     F  switch on orbital magnetization
   LCHIMAG   =     F  perturbation theory with respect to B field
   DQ        =  0.001000  dq finite difference perturbation B field
   LLRAUG    =     F  two centre corrections for induced B field



--------------------------------------------------------------------------------------------------------


 Static calculation
 charge density and potential will be updated during run
 non-spin polarized calculation
 Subrot: only subspace diagonalization (rotation)
    band-by band algorithm
 perform sub-space diagonalisation
    before iterative eigenvector-optimisation
 Kerker-like  mixing scheme
 using additional bands          928
 reciprocal scheme for non local part
 use partial core corrections
 calculate Harris-corrections to forces 
   (improved forces if not selfconsistent)
 use gradient corrections 
 use of overlap-Matrix (Vanderbilt PP)
 Methfessel and Paxton  Order N= 1 SIGMA  =   0.00


--------------------------------------------------------------------------------------------------------


  energy-cutoff  :      400.00
  volume of cell :      327.28
      direct lattice vectors                 reciprocal lattice vectors
     5.469713400  5.469713400  0.000000000     0.091412468  0.091412468 -0.091412468
     0.000000000  5.469713400  5.469713400    -0.091412468  0.091412468  0.091412468
     5.469713400  0.000000000  5.469713400     0.091412468 -0.091412468  0.091412468

  length of vectors
     7.735342873  7.735342873  7.735342873     0.158331039  0.158331039  0.158331039


 
 old parameters found on file WAVECAR:
  energy-cutoff  :      400.00
  volume of cell :      327.28
      direct lattice vectors                 reciprocal lattice vectors
     5.469713400  5.469713400  0.000000000     0.091412468  0.091412468 -0.091412468
     0.000000000  5.469713400  5.469713400    -0.091412468  0.091412468  0.091412468
     5.469713400  0.000000000  5.469713400     0.091412468 -0.091412468  0.091412468

  length of vectors

 
 k-points in units of 2pi/SCALE and weight: Automatic mesh                          
   0.00000000  0.00000000  0.00000000       1.000
 
 k-points in reciprocal lattice and weights: Automatic mesh                          
   0.00000000  0.00000000  0.00000000       1.000
 
 position of ions in fractional coordinates (direct lattice) 
   0.00000000  0.00000000  0.00000000
   0.50000000  0.00000000  0.00000000
   0.00000000  0.50000000  0.00000000
   0.50000000  0.50000000  0.00000000
   0.00000000  0.00000000  0.50000000
   0.50000000  0.00000000  0.50000000
   0.00000000  0.50000000  0.50000000
   0.50000000  0.50000000  0.50000000
   0.12500000  0.12500000  0.12500000
   0.62500000  0.12500000  0.12500000
   0.12500000  0.62500000  0.12500000
   0.62500000  0.62500000  0.12500000
   0.12500000  0.12500000  0.62500000
   0.62500000  0.12500000  0.62500000
   0.12500000  0.62500000  0.62500000
   0.62500000  0.62500000  0.62500000
 
 position of ions in cartesian coordinates  (Angst):
   0.00000000  0.00000000  0.00000000
   2.73485670  2.73485670  0.00000000
   0.00000000  2.73485670  2.73485670
   2.73485670  5.46971340  2.73485670
   2.73485670  0.00000000  2.73485670
   5.46971340  2.73485670  2.73485670
   2.73485670  2.73485670  5.46971340
   5.46971340  5.46971340  5.46971340
   1.36742835  1.36742835  1.36742835
   4.10228505  4.10228505  1.36742835
   1.36742835  4.10228505  4.10228505
   4.10228505  6.83714175  4.10228505
   4.10228505  1.36742835  4.10228505
   6.83714175  4.10228505  4.10228505
   4.10228505  4.10228505  6.83714175
   6.83714175  6.83714175  6.83714175
 


--------------------------------------------------------------------------------------------------------


 use serial FFT for orbitals x direction half grid
 k-point   1 :   0.0000 0.0000 0.0000  plane waves:    2981

 maximum and minimum number of plane-waves per node :      2981     2981

 maximum number of plane-waves:      2981
 maximum index in each direction: 
   IXMAX=   12   IYMAX=   12   IZMAX=   12
   IXMIN=    0   IYMIN=  -10   IZMIN=  -10


 serial   3D FFT for wavefunctions
 parallel 3D FFT for charge:
    minimum data exchange during FFTs selected (reduces bandwidth)

 
 Radii for the augmentation spheres in the non-local exchange
 for species   1 augmentation radius   1.405 (default was   1.124)
       energy cutoff for augmentation   1600.0
 Maximum index for augmentation-charges in exchange         2243
  SETUP_FOCK is finished

 total amount of memory used by VASP MPI-rank0    42982. kBytes
=======================================================================

   base      :      30000. kBytes
   nonl-proj :       1228. kBytes
   fftplans  :        513. kBytes
   grid      :       2897. kBytes
   one-center:        124. kBytes
   HF        :         64. kBytes
   nonlr-proj:       7895. kBytes
   wavefun   :        261. kBytes
 
     INWAV:  cpu time    0.7224: real time    0.7248
 charge density for first step will be calculated from the start-wavefunctions


--------------------------------------------------------------------------------------------------------


 Maximum index for augmentation-charges          499 (set IRDMAX)


--------------------------------------------------------------------------------------------------------


 initial charge from wavefunction
    FEWALD:  cpu time    0.0027: real time    0.0027


--------------------------------------- Iteration      1(   1)  ---------------------------------------


    POTLOK:  cpu time    0.1313: real time    0.1322
    SETDIJ:  cpu time    0.0120: real time    0.0122
    EDDIAG:  cpu time   21.7482: real time   21.8067
       DOS:  cpu time    0.0030: real time    0.0031
    --------------------------------------------
      LOOP:  cpu time   21.8945: real time   21.9543

 eigenvalue-minimisations  :     0
 total energy-change (2. order) :-0.1426617E+03  ( 0.0000000E+00)
 number of electron      63.9999976 magnetization 
 augmentation part       -3.3708534 magnetization 

 Free energy of the ion-electron system (eV)
  ---------------------------------------------------
  alpha Z        PSCENC =        47.65718222
  Ewald energy   TEWEN  =     -1815.23227814
  -Hartree energ DENC   =      -144.56919708
  -exchange      EXHF   =       484.95641215
  -V(xc)+E(xc)   XCENC  =         0.00000000
  PAW double counting   =      2195.64478220    -2199.54931071
  entropy T*S    EENTRO =         0.00000000
  eigenvalues    EBANDS =      -216.69740822
  atomic energy  EATOM  =      1505.12811154
  Solvation  Ediel_sol  =         0.00000000
  ---------------------------------------------------
  free energy    TOTEN  =      -142.66170604 eV

  energy without entropy =     -142.66170604  energy(sigma->0) =     -142.66170604
  exchange ACFDT corr.  =     -1286.32320376  see jH, gK, PRB 81, 115126


--------------------------------------------------------------------------------------------------------




 average (electrostatic) potential at core
  the test charge radii are     1.1243
  (the norm of the test charge is              1.0000)
       1 -50.1479       2 -50.1479       3 -50.1479       4 -50.1479       5 -50.1479
       6 -50.1479       7 -50.1479       8 -50.1479       9 -50.1479      10 -50.1479
      11 -50.1479      12 -50.1479      13 -50.1479      14 -50.1479      15 -50.1479
      16 -50.1479
 
 
 
 E-fermi :   2.7208     XC(G=0):   0.0000     alpha+bet :-11.3646

 Fermi energy:         2.7207653651

 k-point     1 :       0.0000    0.0000    0.0000
  band No.  band energies     occupation 
      1     -13.1049      2.00000
      2      -9.9444      2.00000
      3      -9.9444      2.00000
      4      -9.9444      2.00000
      5      -9.9444      2.00000
      6      -7.3477      2.00000
      7      -7.3477      2.00000
      8      -7.3477      2.00000
      9      -7.3477      2.00000
     10      -7.3477      2.00000
     11      -7.3477      2.00000
     12      -5.8567      2.00000
     13      -5.8567      2.00000
     14      -5.8567      2.00000
     15      -5.8567      2.00000
     16      -0.7379      2.00000
     17      -0.7379      2.00000
     18      -0.7379      2.00000
     19      -0.7379      2.00000
     20      -0.7379      2.00000
     21      -0.7379      2.00000
     22       1.1431      2.00000
     23       1.1431      2.00000
     24       1.1431      2.00000
     25       1.1431      2.00000
     26       1.1431      2.00000
     27       1.1431      2.00000
     28       1.1431      2.00000
     29       1.1431      2.00000
     30       2.4431      2.00000
     31       2.4431      2.00000
     32       2.4431      2.00000
     33      10.8291      0.00000
     34      10.8304      0.00000
     35      10.8308      0.00000
     36      10.8343      0.00000
     37      10.8360      0.00000
     38      10.8387      0.00000
     39      12.0251      0.00000
     40      12.0265      0.00000
     41      12.0270      0.00000
     42      12.0281      0.00000
     43      13.2811      0.00000
     44      13.2825      0.00000
     45      13.2863      0.00000
     46      14.0345      0.00000
     47      14.0368      0.00000
     48      14.0378      0.00000
     49      14.0490      0.00000
     50      14.0501      0.00000
     51      14.0590      0.00000
     52      14.0622      0.00000
     53      14.0650      0.00000
     54      14.7591      0.00000
     55      18.4611      0.00000
     56      18.5759      0.00000
     57      18.6073      0.00000
     58      18.6207      0.00000
     59      18.6450      0.00000
     60      19.1534      0.00000
     61      19.1763      0.00000
     62      22.4830      0.00000
     63      22.4894      0.00000
     64      22.4936      0.00000
     65      22.5001      0.00000
     66      22.5005      0.00000
     67      22.5031      0.00000
     68      22.5117      0.00000
     69      22.5138      0.00000
     70      22.5713      0.00000
     71      22.5815      0.00000
     72      22.5879      0.00000
     73      22.5905      0.00000
     74      22.5947      0.00000
     75      22.6031      0.00000
     76      22.6782      0.00000
     77      22.6822      0.00000
     78      22.7197      0.00000
     79      22.7294      0.00000
     80      22.7389      0.00000
     81      22.7399      0.00000
     82      22.8738      0.00000
     83      22.8767      0.00000
     84      22.8780      0.00000
     85      22.8836      0.00000
     86      22.9421      0.00000
     87      22.9627      0.00000
     88      23.0306      0.00000
     89      23.3614      0.00000
     90      23.3678      0.00000
     91      23.3708      0.00000
     92      23.3758      0.00000
     93      23.3768      0.00000
     94      23.3814      0.00000
     95      23.3846      0.00000
     96      23.3887      0.00000
     97      24.8047      0.00000
     98      24.8337      0.00000
     99      24.8490      0.00000
    100      24.8552      0.00000
    101      24.8616      0.00000
    102      24.8764      0.00000
    103      25.2941      0.00000
    104      25.3029      0.00000
    105      25.3045      0.00000
    106      25.3107      0.00000
    107      25.3190      0.00000
    108      25.3234      0.00000
    109      25.5798      0.00000
    110      25.6047      0.00000
    111      25.6149      0.00000
    112      25.6223      0.00000
    113      26.4706      0.00000
    114      31.7588      0.00000
    115      31.8105      0.00000
    116      31.8315      0.00000
    117      31.8362      0.00000
    118      31.8596      0.00000
    119      31.8873      0.00000
    120      31.9091      0.00000
    121      31.9985      0.00000
    122      32.0868      0.00000
    123      32.1434      0.00000
    124      32.2232      0.00000
    125      32.2452      0.00000
    126      32.5662      0.00000
    127      32.5957      0.00000
    128      32.6239      0.00000
    129      32.6539      0.00000
    130      32.7826      0.00000
    131      32.7864      0.00000
    132      32.8173      0.00000
    133      32.8254      0.00000
    134      32.8920      0.00000
    135      32.8955      0.00000
    136      32.9094      0.00000
    137      32.9188      0.00000
    138      32.9312      0.00000
    139      32.9642      0.00000
    140      33.9755      0.00000
    141      34.0068      0.00000
    142      34.0353      0.00000
    143      34.0527      0.00000
    144      34.0775      0.00000
    145      34.0825      0.00000
    146      34.5557      0.00000
    147      34.5936      0.00000
    148      34.6440      0.00000
    149      34.6527      0.00000
    150      34.6926      0.00000
    151      34.7045      0.00000
    152      34.7292      0.00000
    153      34.7765      0.00000
    154      35.5543      0.00000
    155      35.5637      0.00000
    156      35.5817      0.00000
    157      35.6014      0.00000
    158      35.6108      0.00000
    159      35.6176      0.00000
    160      35.6378      0.00000
    161      35.6408      0.00000
    162      37.4723      0.00000
    163      37.6020      0.00000
    164      37.7395      0.00000
    165      39.2180      0.00000
    166      39.3133      0.00000
    167      39.4634      0.00000
    168      39.6020      0.00000
    169      39.8043      0.00000
    170      39.8193      0.00000
    171      39.9080      0.00000
    172      39.9586      0.00000
    173      40.0129      0.00000
    174      40.4680      0.00000
    175      40.5107      0.00000
    176      40.5308      0.00000
    177      40.5382      0.00000
    178      40.5807      0.00000
    179      40.5903      0.00000
    180      40.6324      0.00000
    181      40.6537      0.00000
    182      40.8136      0.00000
    183      40.8894      0.00000
    184      40.8977      0.00000
    185      40.9324      0.00000
    186      40.9668      0.00000
    187      40.9689      0.00000
    188      40.9773      0.00000
    189      41.0394      0.00000
    190      41.0641      0.00000
    191      41.1232      0.00000
    192      42.0870      0.00000
    193      42.0936      0.00000
    194      42.1375      0.00000
    195      42.1520      0.00000
    196      42.1699      0.00000
    197      42.1810      0.00000
    198      42.2251      0.00000
    199      42.2410      0.00000
    200      42.8835      0.00000
    201      42.9344      0.00000
    202      42.9607      0.00000
    203      44.0232      0.00000
    204      44.0514      0.00000
    205      44.0759      0.00000
    206      44.0937      0.00000
    207      44.1129      0.00000
    208      44.1816      0.00000
    209      44.7063      0.00000
    210      44.7151      0.00000
    211      44.7214      0.00000
    212      44.7377      0.00000
    213      47.1094      0.00000
    214      47.1322      0.00000
    215      47.1424      0.00000
    216      47.1714      0.00000
    217      47.2220      0.00000
    218      47.2654      0.00000
    219      47.2714      0.00000
    220      47.2899      0.00000
    221      47.3778      0.00000
    222      47.4521      0.00000
    223      47.4797      0.00000
    224      47.6269      0.00000
    225      47.7949      0.00000
    226      47.9220      0.00000
    227      47.9649      0.00000
    228      47.9992      0.00000
    229      48.1015      0.00000
    230      48.1838      0.00000
    231      48.2142      0.00000
    232      48.2401      0.00000
    233      48.2818      0.00000
    234      48.4460      0.00000
    235      49.1701      0.00000
    236      49.2508      0.00000
    237      49.4528      0.00000
    238      49.4809      0.00000
    239      49.5425      0.00000
    240      49.7566      0.00000
    241      49.9438      0.00000
    242      49.9667      0.00000
    243      50.1457      0.00000
    244      50.1521      0.00000
    245      50.2773      0.00000
    246      50.9878      0.00000
    247      51.1396      0.00000
    248      51.1469      0.00000
    249      51.2147      0.00000
    250      51.3227      0.00000
    251      51.4983      0.00000
    252      51.5079      0.00000
    253      51.5920      0.00000
    254      51.6592      0.00000
    255      51.6994      0.00000
    256      51.7342      0.00000
    257      51.7430      0.00000
    258      51.8117      0.00000
    259      51.8681      0.00000
    260      51.9786      0.00000
    261      52.2633      0.00000
    262      52.9665      0.00000
    263      53.2985      0.00000
    264      53.4916      0.00000
    265      53.6487      0.00000
    266      53.7414      0.00000
    267      53.7918      0.00000
    268      53.8807      0.00000
    269      53.9371      0.00000
    270      54.0217      0.00000
    271      55.4070      0.00000
    272      55.9125      0.00000
    273      56.0452      0.00000
    274      56.0915      0.00000
    275      56.1257      0.00000
    276      56.5737      0.00000
    277      56.8710      0.00000
    278      57.5401      0.00000
    279      57.6219      0.00000
    280      57.7560      0.00000
    281      57.7879      0.00000
    282      57.8308      0.00000
    283      57.8541      0.00000
    284      57.8935      0.00000
    285      57.9246      0.00000
    286      57.9936      0.00000
    287      58.0507      0.00000
    288      58.1794      0.00000
    289      58.2416      0.00000
    290      58.2477      0.00000
    291      58.3019      0.00000
    292      58.3506      0.00000
    293      58.3655      0.00000
    294      58.5139      0.00000
    295      58.6455      0.00000
    296      58.6643      0.00000
    297      58.8753      0.00000
    298      59.1755      0.00000
    299      59.2402      0.00000
    300      59.4432      0.00000
    301      59.5387      0.00000
    302      59.5940      0.00000
    303      59.6918      0.00000
    304      59.7769      0.00000
    305      59.7988      0.00000
    306      59.8982      0.00000
    307      59.9191      0.00000
    308      60.0076      0.00000
    309      60.0934      0.00000
    310      60.1773      0.00000
    311      60.2751      0.00000
    312      60.7693      0.00000
    313      60.7706      0.00000
    314      60.9065      0.00000
    315      61.0404      0.00000
    316      61.0963      0.00000
    317      61.1894      0.00000
    318      61.4190      0.00000
    319      61.4788      0.00000
    320      61.8649      0.00000
    321      62.1102      0.00000
    322      62.2255      0.00000
    323      62.3918      0.00000
    324      62.4965      0.00000
    325      63.4098      0.00000
    326      63.6423      0.00000
    327      63.7019      0.00000
    328      63.7841      0.00000
    329      63.8445      0.00000
    330      63.8548      0.00000
    331      63.8795      0.00000
    332      63.9052      0.00000
    333      63.9868      0.00000
    334      64.0064      0.00000
    335      64.2912      0.00000
    336      64.3081      0.00000
    337      64.3163      0.00000
    338      64.3580      0.00000
    339      64.3928      0.00000
    340      64.4128      0.00000
    341      64.5210      0.00000
    342      64.8108      0.00000
    343      65.1777      0.00000
    344      65.5518      0.00000
    345      65.5967      0.00000
    346      65.6085      0.00000
    347      65.6849      0.00000
    348      65.7439      0.00000
    349      65.7997      0.00000
    350      65.8174      0.00000
    351      65.8528      0.00000
    352      65.8987      0.00000
    353      65.9276      0.00000
    354      65.9385      0.00000
    355      66.2474      0.00000
    356      66.3866      0.00000
    357      66.4651      0.00000
    358      66.5521      0.00000
    359      66.6101      0.00000
    360      66.6599      0.00000
    361      66.6783      0.00000
    362      66.7590      0.00000
    363      66.9423      0.00000
    364      66.9468      0.00000
    365      67.5891      0.00000
    366      67.7290      0.00000
    367      68.1141      0.00000
    368      68.4172      0.00000
    369      72.1492      0.00000
    370      72.3846      0.00000
    371      72.4447      0.00000
    372      72.5459      0.00000
    373      72.6118      0.00000
    374      73.7449      0.00000
    375      74.1787      0.00000
    376      74.3085      0.00000
    377      74.4753      0.00000
    378      74.6467      0.00000
    379      74.6549      0.00000
    380      74.7699      0.00000
    381      74.8202      0.00000
    382      74.8204      0.00000
    383      75.0228      0.00000
    384      75.0552      0.00000
    385      75.0562      0.00000
    386      75.1870      0.00000
    387      75.2001      0.00000
    388      75.2117      0.00000
    389      75.3555      0.00000
    390      75.3816      0.00000
    391      75.4579      0.00000
    392      75.5125      0.00000
    393      75.5556      0.00000
    394      75.6185      0.00000
    395      75.6592      0.00000
    396      75.6957      0.00000
    397      75.6965      0.00000
    398      75.7372      0.00000
    399      75.8293      0.00000
    400      75.8576      0.00000
    401      76.2291      0.00000
    402      76.3958      0.00000
    403      76.4648      0.00000
    404      76.5296      0.00000
    405      76.5722      0.00000
    406      76.6372      0.00000
    407      76.6858      0.00000
    408      76.8414      0.00000
    409      76.8856      0.00000
    410      77.0166      0.00000
    411      77.1365      0.00000
    412      77.2625      0.00000
    413      77.3861      0.00000
    414      77.5045      0.00000
    415      77.5160      0.00000
    416      77.5766      0.00000
    417      77.6309      0.00000
    418      77.9674      0.00000
    419      78.0001      0.00000
    420      78.0949      0.00000
    421      78.1229      0.00000
    422      78.2183      0.00000
    423      78.2372      0.00000
    424      78.3435      0.00000
    425      78.4139      0.00000
    426      78.4834      0.00000
    427      78.5579      0.00000
    428      78.6196      0.00000
    429      78.9617      0.00000
    430      79.0993      0.00000
    431      79.3287      0.00000
    432      79.4075      0.00000
    433      79.6788      0.00000
    434      79.7931      0.00000
    435      79.9592      0.00000
    436      80.1009      0.00000
    437      80.1682      0.00000
    438      80.2939      0.00000
    439      80.3589      0.00000
    440      80.4361      0.00000
    441      80.4641      0.00000
    442      80.6153      0.00000
    443      80.7022      0.00000
    444      80.7999      0.00000
    445      80.8153      0.00000
    446      80.9119      0.00000
    447      81.2572      0.00000
    448      81.3673      0.00000
    449      81.5284      0.00000
    450      81.5529      0.00000
    451      81.6782      0.00000
    452      81.7830      0.00000
    453      81.9382      0.00000
    454      82.1267      0.00000
    455      82.3903      0.00000
    456      83.0936      0.00000
    457      83.2867      0.00000
    458      83.3458      0.00000
    459      83.6150      0.00000
    460      83.6242      0.00000
    461      83.7670      0.00000
    462      83.8695      0.00000
    463      83.8905      0.00000
    464      84.1487      0.00000
    465      84.1920      0.00000
    466      84.2468      0.00000
    467      84.3511      0.00000
    468      84.3738      0.00000
    469      84.4419      0.00000
    470      84.5215      0.00000
    471      84.6559      0.00000
    472      84.7074      0.00000
    473      84.7624      0.00000
    474      84.7692      0.00000
    475      84.8829      0.00000
    476      84.9381      0.00000
    477      85.0494      0.00000
    478      85.1387      0.00000
    479      85.2306      0.00000
    480      85.2361      0.00000
    481      85.2785      0.00000
    482      85.3697      0.00000
    483      85.4000      0.00000
    484      85.7367      0.00000
    485      85.9021      0.00000
    486      85.9446      0.00000
    487      86.0677      0.00000
    488      86.1507      0.00000
    489      86.2853      0.00000
    490      86.3727      0.00000
    491      86.3737      0.00000
    492      86.5939      0.00000
    493      86.6371      0.00000
    494      86.7630      0.00000
    495      86.8394      0.00000
    496      87.3967      0.00000
    497      87.8635      0.00000
    498      87.9729      0.00000
    499      88.1272      0.00000
    500      88.2792      0.00000
    501      88.3602      0.00000
    502      88.4112      0.00000
    503      88.4830      0.00000
    504      88.5019      0.00000
    505      88.5369      0.00000
    506      88.5932      0.00000
    507      88.7634      0.00000
    508      91.2105      0.00000
    509      91.2643      0.00000
    510      91.6667      0.00000
    511      91.6846      0.00000
    512      91.9773      0.00000
    513      92.0303      0.00000
    514      92.0404      0.00000
    515      92.0986      0.00000
    516      92.2482      0.00000
    517      92.2615      0.00000
    518      92.2993      0.00000
    519      92.3122      0.00000
    520      92.3750      0.00000
    521      92.5241      0.00000
    522      92.6383      0.00000
    523      92.7085      0.00000
    524      92.7133      0.00000
    525      92.7645      0.00000
    526      92.8137      0.00000
    527      92.9947      0.00000
    528      93.0082      0.00000
    529      93.0942      0.00000
    530      93.1189      0.00000
    531      93.1798      0.00000
    532      93.7255      0.00000
    533      93.8739      0.00000
    534      94.0150      0.00000
    535      94.1314      0.00000
    536      94.1803      0.00000
    537      94.3104      0.00000
    538      94.4654      0.00000
    539      94.6384      0.00000
    540      94.8395      0.00000
    541      94.9363      0.00000
    542      94.9941      0.00000
    543      95.1621      0.00000
    544      95.1897      0.00000
    545      95.1969      0.00000
    546      95.2702      0.00000
    547      95.2841      0.00000
    548      95.4632      0.00000
    549      95.5862      0.00000
    550      95.6589      0.00000
    551      95.7349      0.00000
    552      95.7626      0.00000
    553      95.9463      0.00000
    554      95.9485      0.00000
    555      96.0069      0.00000
    556      96.0426      0.00000
    557      96.0910      0.00000
    558      96.1182      0.00000
    559      96.1835      0.00000
    560      96.2278      0.00000
    561      96.4152      0.00000
    562      96.4240      0.00000
    563      96.5617      0.00000
    564      96.6402      0.00000
    565      96.6412      0.00000
    566      96.7908      0.00000
    567      96.7959      0.00000
    568      96.8548      0.00000
    569      96.8856      0.00000
    570      96.9452      0.00000
    571      96.9569      0.00000
    572      97.1277      0.00000
    573      97.2314      0.00000
    574      97.3685      0.00000
    575      97.5258      0.00000
    576      97.5477      0.00000
    577      97.5831      0.00000
    578      97.6427      0.00000
    579      97.7531      0.00000
    580      97.7602      0.00000
    581      97.8862      0.00000
    582      97.9702      0.00000
    583      98.0065      0.00000
    584      98.1713      0.00000
    585      98.2334      0.00000
    586      98.2700      0.00000
    587      98.3446      0.00000
    588      98.5060      0.00000
    589      98.6267      0.00000
    590      98.7751      0.00000
    591      98.9820      0.00000
    592      99.2471      0.00000
    593      99.5786      0.00000
    594     100.0046      0.00000
    595     101.6966      0.00000
    596     101.7295      0.00000
    597     101.8874      0.00000
    598     101.9329      0.00000
    599     102.0557      0.00000
    600     102.4425      0.00000
    601     102.5620      0.00000
    602     102.7061      0.00000
    603     102.8905      0.00000
    604     102.9435      0.00000
    605     102.9983      0.00000
    606     103.3756      0.00000
    607     103.4233      0.00000
    608     103.7172      0.00000
    609     104.0194      0.00000
    610     104.1652      0.00000
    611     104.2962      0.00000
    612     104.3389      0.00000
    613     104.6668      0.00000
    614     104.7885      0.00000
    615     104.9652      0.00000
    616     105.0532      0.00000
    617     105.1508      0.00000
    618     105.2485      0.00000
    619     105.3474      0.00000
    620     105.4720      0.00000
    621     105.4766      0.00000
    622     105.5283      0.00000
    623     105.7832      0.00000
    624     105.8408      0.00000
    625     105.9344      0.00000
    626     105.9394      0.00000
    627     106.2007      0.00000
    628     106.2196      0.00000
    629     106.2892      0.00000
    630     106.4677      0.00000
    631     106.6165      0.00000
    632     106.6847      0.00000
    633     106.7750      0.00000
    634     106.8454      0.00000
    635     107.1224      0.00000
    636     107.2690      0.00000
    637     107.4133      0.00000
    638     107.4704      0.00000
    639     107.5541      0.00000
    640     107.5945      0.00000
    641     107.7440      0.00000
    642     107.7512      0.00000
    643     107.8312      0.00000
    644     107.8850      0.00000
    645     108.0091      0.00000
    646     108.0890      0.00000
    647     108.2047      0.00000
    648     108.3813      0.00000
    649     108.3920      0.00000
    650     108.5475      0.00000
    651     108.5898      0.00000
    652     108.6177      0.00000
    653     108.7338      0.00000
    654     108.7757      0.00000
    655     108.8855      0.00000
    656     108.9539      0.00000
    657     109.0747      0.00000
    658     109.1621      0.00000
    659     109.2226      0.00000
    660     109.3829      0.00000
    661     109.5651      0.00000
    662     109.6044      0.00000
    663     109.8839      0.00000
    664     109.9488      0.00000
    665     110.0825      0.00000
    666     110.2342      0.00000
    667     110.5275      0.00000
    668     110.7640      0.00000
    669     111.2710      0.00000
    670     112.9277      0.00000
    671     113.1057      0.00000
    672     113.1871      0.00000
    673     113.4661      0.00000
    674     113.5147      0.00000
    675     113.6796      0.00000
    676     113.8965      0.00000
    677     114.0698      0.00000
    678     114.1433      0.00000
    679     114.1923      0.00000
    680     114.4398      0.00000
    681     114.5702      0.00000
    682     114.8008      0.00000
    683     114.8194      0.00000
    684     114.9259      0.00000
    685     114.9600      0.00000
    686     115.1263      0.00000
    687     115.1750      0.00000
    688     115.3099      0.00000
    689     115.3694      0.00000
    690     115.3703      0.00000
    691     115.5027      0.00000
    692     115.6095      0.00000
    693     115.8199      0.00000
    694     115.8695      0.00000
    695     116.1223      0.00000
    696     116.1468      0.00000
    697     116.2499      0.00000
    698     116.3874      0.00000
    699     116.6780      0.00000
    700     116.7845      0.00000
    701     116.9666      0.00000
    702     117.0197      0.00000
    703     117.0918      0.00000
    704     117.2045      0.00000
    705     117.3370      0.00000
    706     117.4683      0.00000
    707     117.4947      0.00000
    708     117.5816      0.00000
    709     117.7615      0.00000
    710     117.8313      0.00000
    711     118.0915      0.00000
    712     118.1570      0.00000
    713     118.2507      0.00000
    714     118.3526      0.00000
    715     118.3843      0.00000
    716     118.4332      0.00000
    717     118.4901      0.00000
    718     118.5643      0.00000
    719     118.5781      0.00000
    720     118.7494      0.00000
    721     118.8822      0.00000
    722     118.8955      0.00000
    723     119.0087      0.00000
    724     119.0482      0.00000
    725     119.0855      0.00000
    726     119.2296      0.00000
    727     119.4155      0.00000
    728     119.4864      0.00000
    729     119.6442      0.00000
    730     119.7555      0.00000
    731     119.8396      0.00000
    732     119.9323      0.00000
    733     119.9332      0.00000
    734     120.0127      0.00000
    735     120.0382      0.00000
    736     120.0532      0.00000
    737     120.0844      0.00000
    738     120.2006      0.00000
    739     120.2614      0.00000
    740     120.3057      0.00000
    741     120.3773      0.00000
    742     120.4854      0.00000
    743     120.5337      0.00000
    744     120.6234      0.00000
    745     120.6813      0.00000
    746     120.6850      0.00000
    747     120.7745      0.00000
    748     120.8639      0.00000
    749     120.9682      0.00000
    750     121.0438      0.00000
    751     121.0830      0.00000
    752     121.2280      0.00000
    753     121.4308      0.00000
    754     121.7144      0.00000
    755     121.8007      0.00000
    756     121.9046      0.00000
    757     122.0237      0.00000
    758     122.0346      0.00000
    759     122.1387      0.00000
    760     122.3556      0.00000
    761     122.5612      0.00000
    762     122.8950      0.00000
    763     123.2172      0.00000
    764     123.3510      0.00000
    765     123.7679      0.00000
    766     124.1199      0.00000
    767     124.2325      0.00000
    768     124.3023      0.00000
    769     124.8161      0.00000
    770     124.9810      0.00000
    771     125.1853      0.00000
    772     125.2071      0.00000
    773     125.5015      0.00000
    774     125.6232      0.00000
    775     125.7341      0.00000
    776     125.8622      0.00000
    777     125.9862      0.00000
    778     126.2025      0.00000
    779     126.4081      0.00000
    780     126.8984      0.00000
    781     127.5355      0.00000
    782     128.4103      0.00000
    783     128.9763      0.00000
    784     129.5596      0.00000
    785     130.4298      0.00000
    786     130.4678      0.00000
    787     130.5636      0.00000
    788     130.6051      0.00000
    789     130.7279      0.00000
    790     130.8122      0.00000
    791     130.9114      0.00000
    792     131.0191      0.00000
    793     131.1737      0.00000
    794     131.1872      0.00000
    795     131.2736      0.00000
    796     131.3205      0.00000
    797     131.3759      0.00000
    798     131.5489      0.00000
    799     131.6038      0.00000
    800     131.6166      0.00000
    801     131.6920      0.00000
    802     131.7947      0.00000
    803     132.6037      0.00000
    804     133.4579      0.00000
    805     134.1971      0.00000
    806     134.2061      0.00000
    807     134.8609      0.00000
    808     135.0319      0.00000
    809     135.1932      0.00000
    810     135.3585      0.00000
    811     135.6814      0.00000
    812     136.0142      0.00000
    813     136.0822      0.00000
    814     136.9243      0.00000
    815     137.4501      0.00000
    816     137.8684      0.00000
    817     137.9268      0.00000
    818     138.0476      0.00000
    819     138.2477      0.00000
    820     138.4572      0.00000
    821     138.5150      0.00000
    822     138.9069      0.00000
    823     139.2377      0.00000
    824     139.3109      0.00000
    825     139.3788      0.00000
    826     139.5473      0.00000
    827     140.1074      0.00000
    828     140.5855      0.00000
    829     140.6418      0.00000
    830     140.9453      0.00000
    831     141.0854      0.00000
    832     142.5973      0.00000
    833     113.8627      0.00000
    834     114.0393      0.00000
    835     114.4102      0.00000
    836     114.8152      0.00000
    837     115.3151      0.00000
    838     115.3981      0.00000
    839     115.6633      0.00000
    840     115.6651      0.00000
    841     116.1979      0.00000
    842     116.5776      0.00000
    843     116.5834      0.00000
    844     116.6785      0.00000
    845     117.1553      0.00000
    846     117.3708      0.00000
    847     117.7603      0.00000
    848     117.8331      0.00000
    849     118.3537      0.00000
    850     118.5764      0.00000
    851     118.9808      0.00000
    852     120.0963      0.00000
    853     120.1060      0.00000
    854     122.6839      0.00000
    855     126.0354      0.00000
    856     128.4147      0.00000
    857     128.5109      0.00000
    858     129.0643      0.00000
    859     129.2971      0.00000
    860     129.3552      0.00000
    861     129.4855      0.00000
    862     129.5979      0.00000
    863     130.7368      0.00000
    864     130.7754      0.00000
    865     130.8474      0.00000
    866     131.1685      0.00000
    867     131.6153      0.00000
    868     131.8200      0.00000
    869     132.1377      0.00000
    870     132.1465      0.00000
    871     132.2601      0.00000
    872     132.5008      0.00000
    873     132.6458      0.00000
    874     133.4063      0.00000
    875     133.4123      0.00000
    876     133.8864      0.00000
    877     134.0633      0.00000
    878     134.1490      0.00000
    879     134.5833      0.00000
    880     134.7752      0.00000
    881     134.7958      0.00000
    882     135.0391      0.00000
    883     135.2570      0.00000
    884     135.5951      0.00000
    885     135.7178      0.00000
    886     136.2845      0.00000
    887     136.7164      0.00000
    888     136.9169      0.00000
    889     136.9780      0.00000
    890     137.0949      0.00000
    891     137.3467      0.00000
    892     137.3535      0.00000
    893     137.4714      0.00000
    894     137.8933      0.00000
    895     138.2906      0.00000
    896     138.6730      0.00000
    897     138.7123      0.00000
    898     138.9941      0.00000
    899     139.1506      0.00000
    900     139.3064      0.00000
    901     139.3613      0.00000
    902     139.5049      0.00000
    903     139.6016      0.00000
    904     139.6644      0.00000
    905     139.7243      0.00000
    906     139.7402      0.00000
    907     139.8254      0.00000
    908     139.8618      0.00000
    909     140.1526      0.00000
    910     140.4282      0.00000
    911     140.6023      0.00000
    912     141.1929      0.00000
    913     141.2591      0.00000
    914     141.4289      0.00000
    915     141.5650      0.00000
    916     141.6198      0.00000
    917     141.6732      0.00000
    918     141.8094      0.00000
    919     141.8778      0.00000
    920     142.2641      0.00000
    921     142.2649      0.00000
    922     142.3887      0.00000
    923     142.5381      0.00000
    924     142.5824      0.00000
    925     142.7949      0.00000
    926     142.8605      0.00000
    927     142.8930      0.00000
    928     142.9491      0.00000
    929     142.9727      0.00000
    930     143.1271      0.00000
    931     143.1349      0.00000
    932     143.3778      0.00000
    933     143.4929      0.00000
    934     143.6401      0.00000
    935     143.7997      0.00000
    936     143.8149      0.00000
    937     144.0955      0.00000
    938     144.3942      0.00000
    939     144.6514      0.00000
    940     144.6648      0.00000
    941     144.6761      0.00000
    942     144.8562      0.00000
    943     144.9126      0.00000
    944     145.1530      0.00000
    945     145.7365      0.00000
    946     145.8208      0.00000
    947     145.8445      0.00000
    948     145.9114      0.00000
    949     146.4877      0.00000
    950     147.1176      0.00000
    951     147.4640      0.00000
    952     148.2265      0.00000
    953     149.3929      0.00000
    954     150.0029      0.00000
    955     150.8002      0.00000
    956     151.6490      0.00000
    957     153.5633      0.00000
    958     155.8221      0.00000
    959     159.0326      0.00000
    960     160.4851      0.00000


--------------------------------------------------------------------------------------------------------


 soft charge-density along one line, spin component           1
         0         1         2         3         4         5         6         7         8         9
 total charge-density along one line
 
 pseudopotential strength for first ion, spin component:           1
 14.416 -16.723   0.000   0.000   0.000  -0.000  -0.000  -0.000
-16.723  52.889  -0.000  -0.000  -0.000   0.000   0.000   0.000
  0.000  -0.000   3.359   0.000   0.000  -9.833  -0.000  -0.000
  0.000  -0.000   0.000   3.359   0.000  -0.000  -9.833  -0.000
  0.000  -0.000   0.000   0.000   3.359  -0.000  -0.000  -9.833
 -0.000   0.000  -9.833  -0.000  -0.000  31.350   0.000   0.000
 -0.000   0.000  -0.000  -9.833  -0.000   0.000  31.350   0.000
 -0.000   0.000  -0.000  -0.000  -9.833   0.000   0.000  31.350
  0.000   0.000   0.000  -0.007   0.000  -0.000   0.012  -0.000
  0.000   0.000   0.000   0.000  -0.007  -0.000  -0.000   0.012
 -0.000  -0.000  -0.000   0.000  -0.000   0.000  -0.000   0.000
  0.000   0.000  -0.007   0.000   0.000   0.012  -0.000  -0.000
 -0.000  -0.000  -0.000   0.000   0.000   0.000  -0.000  -0.000
 -0.000   0.000  -0.000   0.029  -0.000   0.000  -0.074   0.000
 -0.000   0.000  -0.000  -0.000   0.029   0.000   0.000  -0.074
  0.000  -0.000   0.000  -0.000   0.000  -0.000   0.000  -0.000
 -0.000   0.000   0.029  -0.000  -0.000  -0.074   0.000   0.000
  0.000  -0.000   0.000  -0.000  -0.000  -0.000   0.000   0.000
 total augmentation occupancy for first ion, spin component:           1
  1.355   0.047   0.000   0.000   0.000   0.000   0.000   0.000   0.000   0.000   0.000   0.000   0.000   0.000   0.000   0.000
  0.047   0.002   0.000   0.000   0.000   0.000   0.000   0.000   0.000   0.000   0.000   0.000   0.000   0.000   0.000   0.000
  0.000   0.000   1.394  -0.000  -0.000   0.057  -0.000  -0.000  -0.000   0.000  -0.000   0.226  -0.000   0.000   0.000  -0.000
  0.000   0.000  -0.000   1.394  -0.000  -0.000   0.057  -0.000   0.226  -0.000   0.000  -0.000  -0.000  -0.000   0.000   0.000
  0.000   0.000  -0.000  -0.000   1.394  -0.000  -0.000   0.057  -0.000   0.226  -0.000  -0.000   0.000   0.000  -0.000  -0.000
  0.000   0.000   0.057  -0.000  -0.000   0.002  -0.000  -0.000  -0.000  -0.000  -0.000   0.009  -0.000   0.000   0.000  -0.000
  0.000   0.000  -0.000   0.057  -0.000  -0.000   0.002  -0.000   0.009  -0.000   0.000  -0.000  -0.000   0.000   0.000   0.000
  0.000   0.000  -0.000  -0.000   0.057  -0.000  -0.000   0.002  -0.000   0.009  -0.000  -0.000   0.000   0.000   0.000  -0.000
  0.000   0.000  -0.000   0.226  -0.000  -0.000   0.009  -0.000   0.040   0.000   0.000   0.000  -0.000   0.000   0.000   0.000
  0.000   0.000   0.000  -0.000   0.226  -0.000  -0.000   0.009   0.000   0.040  -0.000   0.000   0.000   0.000   0.000  -0.000
  0.000   0.000  -0.000   0.000  -0.000  -0.000   0.000  -0.000   0.000  -0.000   0.002  -0.000  -0.000   0.000  -0.000   0.000
  0.000   0.000   0.226  -0.000  -0.000   0.009  -0.000  -0.000   0.000   0.000  -0.000   0.040  -0.000   0.000   0.000  -0.000
  0.000   0.000  -0.000  -0.000   0.000  -0.000  -0.000   0.000  -0.000   0.000  -0.000  -0.000   0.002  -0.000   0.000  -0.000
  0.000   0.000   0.000  -0.000   0.000   0.000   0.000   0.000   0.000   0.000   0.000   0.000  -0.000   0.000  -0.000   0.000
  0.000   0.000   0.000   0.000  -0.000   0.000   0.000   0.000   0.000   0.000  -0.000   0.000   0.000  -0.000   0.000  -0.000
  0.000   0.000  -0.000   0.000  -0.000  -0.000   0.000  -0.000   0.000  -0.000   0.000  -0.000  -0.000   0.000  -0.000   0.000
  0.000   0.000  -0.000   0.000   0.000   0.000   0.000   0.000   0.000   0.000  -0.000   0.000  -0.000  -0.000  -0.000  -0.000
  0.000   0.000  -0.000  -0.000   0.000  -0.000  -0.000   0.000   0.000   0.000  -0.000  -0.000   0.000  -0.000   0.000  -0.000


------------------------ aborting loop because EDIFF is reached ----------------------------------------


    CHARGE:  cpu time    0.0221: real time    0.0221
    FORLOC:  cpu time    0.0024: real time    0.0024
    FORHF :  cpu time    0.2940: real time    0.2953
    FORNL :  cpu time    0.0661: real time    0.0665
    FORCOR:  cpu time    0.1240: real time    0.1245
    FORHAR:  cpu time    0.0289: real time    0.0292
    MIXING:  cpu time    0.0005: real time    0.0005
    OFIELD:  cpu time    0.0001: real time    0.0002

 VOLUME and BASIS-vectors are now :
 -----------------------------------------------------------------------------
  energy-cutoff  :      400.00
  volume of cell :      327.28
      direct lattice vectors                 reciprocal lattice vectors
     5.469713400  5.469713400  0.000000000     0.091412468  0.091412468 -0.091412468
     0.000000000  5.469713400  5.469713400    -0.091412468  0.091412468  0.091412468
     5.469713400  0.000000000  5.469713400     0.091412468 -0.091412468  0.091412468

  length of vectors
     7.735342873  7.735342873  7.735342873     0.158331039  0.158331039  0.158331039


 FORCES acting on ions
    electron-ion (+dipol)            ewald-force                    non-local-force                 convergence-correction
 -----------------------------------------------------------------------------------------------
   -.239E-05 -.156E-05 -.151E-05   -.242E-13 -.329E-13 0.202E-13   0.706E-05 0.214E-05 0.478E-06   -.246E-05 0.166E-06 0.111E-05
   -.257E-05 -.240E-05 -.794E-06   -.246E-13 -.320E-13 0.175E-13   0.326E-05 0.186E-05 -.856E-08   0.549E-06 0.131E-05 -.274E-06
   -.597E-06 -.116E-05 -.269E-06   -.280E-13 -.329E-13 0.207E-13   0.132E-05 0.153E-05 -.146E-05   -.139E-05 -.335E-06 0.413E-06
   -.171E-05 -.214E-05 -.106E-05   -.249E-13 -.320E-13 0.213E-13   -.323E-06 0.343E-05 0.313E-05   0.191E-05 -.609E-07 -.202E-05
   -.992E-06 -.164E-05 -.285E-05   -.235E-13 -.278E-13 0.207E-13   -.194E-06 0.376E-05 0.334E-05   0.657E-06 -.106E-05 0.495E-06
   -.151E-05 -.208E-05 -.843E-06   -.249E-13 -.320E-13 0.213E-13   0.208E-05 0.225E-05 -.412E-06   -.584E-06 0.852E-06 0.480E-06
   -.195E-05 -.534E-06 -.137E-05   -.249E-13 -.320E-13 0.213E-13   0.137E-05 0.126E-05 0.450E-06   0.723E-06 -.122E-05 0.398E-06
   -.339E-05 -.137E-05 -.945E-06   -.249E-13 -.320E-13 0.213E-13   0.473E-05 0.194E-05 0.121E-05   0.280E-06 0.496E-07 -.316E-06
   0.217E-05 0.136E-05 0.617E-06   0.246E-13 0.334E-13 -.188E-13   -.180E-05 -.207E-05 -.909E-06   -.524E-06 -.125E-06 0.138E-05
   0.185E-05 0.106E-05 0.234E-05   0.237E-13 0.317E-13 -.170E-13   -.169E-05 -.296E-05 -.387E-05   -.943E-06 0.206E-05 0.851E-06
   0.214E-05 0.196E-05 0.230E-05   0.284E-13 0.329E-13 -.204E-13   -.276E-05 -.230E-05 -.202E-05   -.496E-07 -.109E-05 -.136E-05
   0.109E-05 0.189E-05 0.260E-05   0.254E-13 0.326E-13 -.205E-13   -.774E-06 -.348E-05 -.546E-06   0.461E-06 0.514E-06 -.227E-05
   0.193E-05 0.306E-05 0.148E-05   0.228E-13 0.271E-13 -.214E-13   -.673E-06 -.468E-05 -.198E-05   -.832E-06 -.437E-06 0.258E-06
   0.939E-06 0.200E-05 0.205E-05   0.243E-13 0.319E-13 -.216E-13   -.144E-05 -.486E-05 -.179E-05   0.953E-06 0.416E-06 -.104E-05
   0.133E-05 0.299E-05 0.270E-05   0.256E-13 0.322E-13 -.217E-13   -.981E-07 -.396E-05 -.706E-05   -.801E-06 -.372E-06 0.211E-05
   0.851E-06 0.135E-05 0.225E-05   0.243E-13 0.314E-13 -.226E-13   -.275E-05 -.140E-05 -.316E-05   0.190E-05 -.487E-06 0.207E-06
 -----------------------------------------------------------------------------------------------
   -.281E-05 0.281E-05 0.669E-05   -.549E-15 -.119E-15 0.145E-15   0.731E-05 -.752E-05 -.146E-04   -.142E-06 0.178E-06 0.415E-06
 
 
 POSITION                                       TOTAL-FORCE (eV/Angst)
 -----------------------------------------------------------------------------------
      0.00000      0.00000      0.00000         0.000002      0.000002      0.000001
      2.73486      2.73486      0.00000         0.000002      0.000002      0.000000
      0.00000      2.73486      2.73486        -0.000000      0.000001     -0.000000
      2.73486      5.46971      2.73486         0.000001      0.000002      0.000001
      2.73486      0.00000      2.73486         0.000000      0.000002      0.000002
      5.46971      2.73486      2.73486         0.000000      0.000002      0.000000
      2.73486      2.73486      5.46971         0.000001      0.000000      0.000001
      5.46971      5.46971      5.46971         0.000002      0.000002      0.000001
      1.36743      1.36743      1.36743        -0.000001     -0.000001      0.000001
      4.10229      4.10229      1.36743        -0.000002     -0.000000     -0.000001
      1.36743      4.10229      4.10229        -0.000002     -0.000002     -0.000001
      4.10229      6.83714      4.10229        -0.000000     -0.000001     -0.000001
      4.10229      1.36743      4.10229        -0.000001     -0.000002     -0.000000
      6.83714      4.10229      4.10229        -0.000000     -0.000003     -0.000001
      4.10229      4.10229      6.83714        -0.000001     -0.000002     -0.000002
      6.83714      6.83714      6.83714        -0.000001     -0.000001     -0.000001
 -----------------------------------------------------------------------------------
    total drift:                                0.000004     -0.000004     -0.000007


--------------------------------------------------------------------------------------------------------



  FREE ENERGIE OF THE ION-ELECTRON SYSTEM (eV)
  ---------------------------------------------------
  free  energy   TOTEN  =      -142.66170604 eV

  energy  without entropy=     -142.66170604  energy(sigma->0) =     -142.66170604
 


--------------------------------------------------------------------------------------------------------


    POTLOK:  cpu time    0.1345: real time    0.1352


--------------------------------------------------------------------------------------------------------


 writing wavefunctions
     LOOP+:  cpu time   24.8023: real time   24.8875
    4ORBIT:  cpu time    0.0000: real time    0.0000

 total amount of memory used by VASP MPI-rank0   180739. kBytes
=======================================================================

   base      :      30000. kBytes
   nonl-proj :       1228. kBytes
   fftplans  :        513. kBytes
   grid      :       2897. kBytes
   one-center:        124. kBytes
   HF        :         64. kBytes
   nonlr-proj:       7895. kBytes
   wavefun   :        261. kBytes
   fock_wrk  :     137757. kBytes
 
  
  
 General timing and accounting informations for this job:
 ========================================================
  
                  Total CPU time used (sec):       30.797
                            User time (sec):       21.356
                          System time (sec):        9.441
                         Elapsed time (sec):       31.324
  
                   Maximum memory used (kb):     1714092.
                   Average memory used (kb):          N/A
  
                          Minor page faults:       425860
                          Major page faults:            0
                 Voluntary context switches:         1691
