 vasp.6.3.0 20Jan22 (build Mar 03 2022 12:53:00) gamma-only                     
  
 executed on             LinuxIFC date 2022.03.20  15:49:22
 running on  384 total cores
 distrk:  each k-point on  384 cores,    1 groups
 distr:  one band on NCORE=   1 cores,  384 groups


--------------------------------------------------------------------------------------------------------


 INCAR:
   ENCUT = 400
   SIGMA = 0.0001
   EDIFF = 1E-6

 POTCAR:    PAW Si_GW 04May2012                   
 -----------------------------------------------------------------------------
|                                                                             |
|           W    W    AA    RRRRR   N    N  II  N    N   GGGG   !!!           |
|           W    W   A  A   R    R  NN   N  II  NN   N  G    G  !!!           |
|           W    W  A    A  R    R  N N  N  II  N N  N  G       !!!           |
|           W WW W  AAAAAA  RRRRR   N  N N  II  N  N N  G  GGG   !            |
|           WW  WW  A    A  R   R   N   NN  II  N   NN  G    G                |
|           W    W  A    A  R    R  N    N  II  N    N   GGGG   !!!           |
|                                                                             |
|     For optimal performance we recommend to set                             |
|       NCORE = 2 up to number-of-cores-per-socket                            |
|     NCORE specifies how many cores store one orbital (NPAR=cpu/NCORE).      |
|     This setting can greatly improve the performance of VASP for DFT.       |
|     The default, NCORE=1 might be grossly inefficient on modern             |
|     multi-core architectures or massively parallel machines. Do your        |
|     own testing! More info at https://www.vasp.at/wiki/index.php/NCORE      |
|     Unfortunately you need to use the default for GW and RPA                |
|     calculations (for HF NCORE is supported but not extensively tested      |
|     yet).                                                                   |
|                                                                             |
 -----------------------------------------------------------------------------

 POTCAR:    PAW Si_GW 04May2012                   
   VRHFIN =Si: s2p2                                                                                 
   LEXCH  = PE                                                                                      
   EATOM  =   103.0669 eV,    7.5752 Ry                                                             
                                                                                                    
   TITEL  = PAW Si_GW 04May2012                                                                     
   LULTRA =        F    use ultrasoft PP ?                                                          
   IUNSCR =        1    unscreen: 0-lin 1-nonlin 2-no                                               
   RPACOR =    1.500    partial core radius                                                         
   POMASS =   28.085; ZVAL   =    4.000    mass and valenz                                          
   RCORE  =    1.900    outmost cutoff radius                                                       
   RWIGS  =    2.480; RWIGS  =    1.312    wigner-seitz radius (au A)                               
   ENMAX  =  245.345; ENMIN  =  184.009 eV                                                          
   ICORE  =        3    local potential                                                             
   LCOR   =        T    correct aug charges                                                         
   LPAW   =        T    paw PP                                                                      
   EAUG   =  412.952                                                                                
   DEXC   =    0.000                                                                                
   RMAX   =    1.950    core radius for proj-oper                                                   
   RAUG   =    1.300    factor for augmentation sphere                                              
   RDEP   =    1.993    radius for radial grids                                                     
   RDEPT  =    2.000    core radius for aug-charge                                                  
                                                                                                    
   Atomic configuration                                                                             
    7 entries                                                                                       
     n  l   j            E        occ.                                                              
     1  0  0.50     -1785.8828   2.0000                                                             
     2  0  0.50      -139.4969   2.0000                                                             
     2  1  1.50       -95.5546   6.0000                                                             
     3  0  0.50       -10.8127   2.0000                                                             
     3  1  0.50        -4.0811   2.0000                                                             
     3  2  1.50        -4.0817   0.0000                                                             
     4  3  2.50        -4.0817   0.0000                                                             
   Description                                                                                      
     l       E           TYP  RCUT    TYP  RCUT                                                     
     0    -10.8127223     23  1.900                                                                 
     0     95.2407820     23  1.900                                                                 
     1     -4.0811372     23  1.900                                                                 
     1     54.4233040     23  1.900                                                                 
     2     -8.1634956     23  1.900                                                                 
     2     81.6349560     23  1.900                                                                 
     3     27.2116520     23  1.900                                                                 
  local pseudopotential read in
  partial core-charges read in
  partial kinetic energy density read in
  kinetic energy density of atom read in
  atomic valenz-charges read in
  non local Contribution for L=           0  read in
    real space projection operators read in
  non local Contribution for L=           0  read in
    real space projection operators read in
  non local Contribution for L=           1  read in
    real space projection operators read in
  non local Contribution for L=           1  read in
    real space projection operators read in
  non local Contribution for L=           2  read in
    real space projection operators read in
  non local Contribution for L=           2  read in
    real space projection operators read in
    PAW grid and wavefunctions read in
 
   number of l-projection  operators is LMAX  =           6
   number of lm-projection operators is LMMAX =          18
 
  PAW Si_GW 04May2012                   :
 energy of atom  1       EATOM= -103.0669
 kinetic energy error for atom=    0.0012 (will be added to EATOM!!)
 
 
 POSCAR: cd:
  positions in direct lattice
  velocities in cartesian coordinates
 exchange correlation table for  LEXCH =        8
   RHO(1)=    0.500       N(1)  =     2000
   RHO(2)=  100.500       N(2)  =     4000
 


--------------------------------------------------------------------------------------------------------


 ion  position               nearest neighbor table
   1  0.001  0.001  0.001-   9 2.38  12 2.38  10 2.38
   2  0.496  0.001  0.001-   9 2.38  11 2.38  13 2.38
   3  0.001  0.496  0.001-  10 2.38  11 2.38  14 2.38
   4  0.500  0.500  0.000-   9 2.37  10 2.37  11 2.37  15 2.37
   5  0.001  0.001  0.496-  12 2.38  13 2.38  14 2.38
   6  0.500  0.000  0.500-   9 2.37  12 2.37  13 2.37  15 2.37
   7  0.000  0.500  0.500-  10 2.37  12 2.37  14 2.37  15 2.37
   8  0.500  0.500  0.500-  11 2.37  13 2.37  14 2.37  15 2.37
   9  0.625  0.125  0.125-   4 2.37   6 2.37   2 2.38   1 2.38
  10  0.125  0.625  0.125-   4 2.37   7 2.37   3 2.38   1 2.38
  11  0.625  0.625  0.125-   4 2.37   8 2.37   2 2.38   3 2.38
  12  0.125  0.125  0.625-   6 2.37   7 2.37   5 2.38   1 2.38
  13  0.625  0.125  0.625-   6 2.37   8 2.37   2 2.38   5 2.38
  14  0.125  0.625  0.625-   7 2.37   8 2.37   3 2.38   5 2.38
  15  0.625  0.625  0.625-   4 2.37   7 2.37   6 2.37   8 2.37
 
  LATTYP: Found a face centered cubic cell.
 ALAT       =    10.9394268000
  
  Lattice vectors:
  
 A1 = (   5.4697134000,   5.4697134000,   0.0000000000)
 A2 = (   0.0000000000,   5.4697134000,   5.4697134000)
 A3 = (   5.4697134000,   0.0000000000,   5.4697134000)


Analysis of symmetry for initial positions (statically):
=====================================================================
 Subroutine PRICEL returns:
 Original cell was already a primitive cell.
 

 Routine SETGRP: Setting up the symmetry group for a 
 face centered cubic supercell.


 Subroutine GETGRP returns: Found 24 space group operations
 (whereof  6 operations were pure point group operations)
 out of a pool of 48 trial point group operations.


The static configuration has the point symmetry C_3v.
 The point group associated with its full space group is T_d .


Analysis of symmetry for dynamics (positions and initial velocities):
=====================================================================
 Subroutine PRICEL returns:
 Original cell was already a primitive cell.
 

 Routine SETGRP: Setting up the symmetry group for a 
 face centered cubic supercell.


 Subroutine GETGRP returns: Found 24 space group operations
 (whereof  6 operations were pure point group operations)
 out of a pool of 48 trial point group operations.


The dynamic configuration has the point symmetry C_3v.
 The point group associated with its full space group is T_d .


 Subroutine INISYM returns: Found 24 space group operations
 (whereof  6 operations are pure point group operations),
 and found     1 'primitive' translations


----------------------------------------------------------------------------------------

                                     Primitive cell                                     

  volume of cell :     327.2832

  direct lattice vectors                    reciprocal lattice vectors
     5.469713400  5.469713400  0.000000000     0.091412468  0.091412468 -0.091412468
     0.000000000  5.469713400  5.469713400    -0.091412468  0.091412468  0.091412468
     5.469713400  0.000000000  5.469713400     0.091412468 -0.091412468  0.091412468

  length of vectors
     7.735342873  7.735342873  7.735342873     0.158331039  0.158331039  0.158331039

  position of ions in fractional coordinates (direct lattice)
     0.001371464  0.001371464  0.001371464
     0.495885607  0.001371464  0.001371464
     0.001371464  0.495885607  0.001371464
     0.499999461  0.499999461  0.000001617
     0.001371464  0.001371464  0.495885607
     0.499999461  0.000001617  0.499999461
     0.000001617  0.499999461  0.499999461
     0.499999461  0.499999461  0.499999461
     0.624789722  0.125210278  0.125210278
     0.125210278  0.624789722  0.125210278
     0.624789722  0.624789722  0.125210278
     0.125210278  0.125210278  0.624789722
     0.624789722  0.125210278  0.624789722
     0.125210278  0.624789722  0.624789722
     0.625000000  0.625000000  0.625000000

  ion indices of the primitive-cell ions
   primitive index   ion index
                 1           1
                 2           2
                 3           3
                 4           4
                 5           5
                 6           6
                 7           7
                 8           8
                 9           9
                10          10
                11          11
                12          12
                13          13
                14          14
                15          15

----------------------------------------------------------------------------------------

 
 
 KPOINTS: Automatic mesh                          

Automatic generation of k-mesh.
 Grid dimensions read from file:
 generate k-points for:    1    1    1

 Generating k-lattice:

  Cartesian coordinates                     Fractional coordinates (reciprocal lattice)
     0.091412468  0.091412468 -0.091412468     1.000000000  0.000000000  0.000000000
    -0.091412468  0.091412468  0.091412468     0.000000000  1.000000000 -0.000000000
     0.091412468 -0.091412468  0.091412468    -0.000000000 -0.000000000  1.000000000

  Length of vectors
     0.158331039  0.158331039  0.158331039

  Shift w.r.t. Gamma in fractional coordinates (k-lattice)
     0.000000000  0.000000000  0.000000000

 
 Subroutine IBZKPT returns following result:
 ===========================================
 
 Found      1 irreducible k-points:
 
 Following reciprocal coordinates:
            Coordinates               Weight
  0.000000  0.000000  0.000000      1.000000
 
 Following cartesian coordinates:
            Coordinates               Weight
  0.000000  0.000000  0.000000      1.000000
 


--------------------------------------------------------------------------------------------------------




 Dimension of arrays:
   k-points           NKPTS =      1   k-points in BZ     NKDIM =      1   number of bands    NBANDS=    384
   number of dos      NEDOS =    301   number of ions     NIONS =     15
   non local maximal  LDIM  =      6   non local SUM 2l+1 LMDIM =     18
   total plane-waves  NPLWV =  64000
   max r-space proj   IRMAX =      1   max aug-charges    IRDMAX=   9797
   dimension x,y,z NGX =    40 NGY =   40 NGZ =   40
   dimension x,y,z NGXF=    80 NGYF=   80 NGZF=   80
   support grid    NGXF=    80 NGYF=   80 NGZF=   80
   ions per type =              15
   NGX,Y,Z   is equivalent  to a cutoff of   8.60,  8.60,  8.60 a.u.
   NGXF,Y,Z  is equivalent  to a cutoff of  17.19, 17.19, 17.19 a.u.

 SYSTEM =  unknown system                          
 POSCAR =  cd:                                     

 Startparameter for this run:
   NWRITE =      2    write-flag & timer
   PREC   = normal    normal or accurate (medium, high low for compatibility)
   ISTART =      0    job   : 0-new  1-cont  2-samecut
   ICHARG =      2    charge: 1-file 2-atom 10-const
   ISPIN  =      1    spin polarized calculation?
   LNONCOLLINEAR =      F non collinear calculations
   LSORBIT =      F    spin-orbit coupling
   INIWAV =      1    electr: 0-lowe 1-rand  2-diag
   LASPH  =      F    aspherical Exc in radial PAW
 Electronic Relaxation 1
   ENCUT  =  400.0 eV  29.40 Ry    5.42 a.u.  12.61 12.61 12.61*2*pi/ulx,y,z
   ENINI  =  400.0     initial cutoff
   ENAUG  =  413.0 eV  augmentation charge cutoff
   NELM   =     60;   NELMIN=  2; NELMDL= -5     # of ELM steps 
   EDIFF  = 0.1E-05   stopping-criterion for ELM
   LREAL  =      F    real-space projection
   NLSPLINE    = F    spline interpolate recip. space projectors
   LCOMPAT=      F    compatible to vasp.4.4
   GGA_COMPAT  = T    GGA compatible to vasp.4.4-vasp.4.6
   LMAXPAW     = -100 max onsite density
   LMAXMIX     =    2 max onsite mixed and CHGCAR
   VOSKOWN=      0    Vosko Wilk Nusair interpolation
   ROPT   =    0.00000
 Ionic relaxation
   EDIFFG = 0.1E-04   stopping-criterion for IOM
   NSW    =      0    number of steps for IOM
   NBLOCK =      1;   KBLOCK =      1    inner block; outer block 
   IBRION =     -1    ionic relax: 0-MD 1-quasi-New 2-CG
   NFREE  =      0    steps in history (QN), initial steepest desc. (CG)
   ISIF   =      2    stress and relaxation
   IWAVPR =     10    prediction:  0-non 1-charg 2-wave 3-comb
   ISYM   =      2    0-nonsym 1-usesym 2-fastsym
   LCORR  =      T    Harris-Foulkes like correction to forces

   POTIM  = 0.5000    time-step for ionic-motion
   TEIN   =    0.0    initial temperature
   TEBEG  =    0.0;   TEEND  =   0.0 temperature during run
   SMASS  =  -3.00    Nose mass-parameter (am)
   estimated Nose-frequenzy (Omega)   =  0.10E-29 period in steps = 0.13E+47 mass=  -0.137E-26a.u.
   SCALEE = 1.0000    scale energy and forces
   NPACO  =    256;   APACO  = 10.0  distance and # of slots for P.C.
   PSTRESS=    0.0 pullay stress

  Mass of Ions in am
   POMASS =  28.09
  Ionic Valenz
   ZVAL   =   4.00
  Atomic Wigner-Seitz radii
   RWIGS  =  -1.00
  virtual crystal weights 
   VCA    =   1.00
   NELECT =      60.0000    total number of electrons
   NUPDOWN=      -1.0000    fix difference up-down

 DOS related values:
   EMIN   =  10.00;   EMAX   =-10.00  energy-range for DOS
   EFERMI =   0.00
   ISMEAR =     1;   SIGMA  =   0.00  broadening in eV -4-tet -1-fermi 0-gaus

 Electronic relaxation 2 (details)
   IALGO  =     38    algorithm
   LDIAG  =      T    sub-space diagonalisation (order eigenvalues)
   LSUBROT=      F    optimize rotation matrix (better conditioning)
   TURBO    =      0    0=normal 1=particle mesh
   IRESTART =      0    0=no restart 2=restart with 2 vectors
   NREBOOT  =      0    no. of reboots
   NMIN     =      0    reboot dimension
   EREF     =   0.00    reference energy to select bands
   IMIX   =      4    mixing-type and parameters
     AMIX     =   0.40;   BMIX     =  1.00
     AMIX_MAG =   1.60;   BMIX_MAG =  1.00
     AMIN     =   0.10
     WC   =   100.;   INIMIX=   1;  MIXPRE=   1;  MAXMIX= -45

 Intra band minimization:
   WEIMIN = 0.0000     energy-eigenvalue tresh-hold
   EBREAK =  0.65E-09  absolut break condition
   DEPER  =   0.30     relativ break condition  

   TIME   =   0.40     timestep for ELM

  volume/ion in A,a.u.               =      21.82       147.24
  Fermi-wavevector in a.u.,A,eV,Ry     =   0.930002  1.757449 11.767737  0.864904
  Thomas-Fermi vector in A             =   2.056345
 
 Write flags
   LWAVE        =      T    write WAVECAR
   LDOWNSAMPLE  =      F    k-point downsampling of WAVECAR
   LCHARG       =      T    write CHGCAR
   LVTOT        =      F    write LOCPOT, total local potential
   LVHAR        =      F    write LOCPOT, Hartree potential only
   LELF         =      F    write electronic localiz. function (ELF)
   LORBIT       =      0    0 simple, 1 ext, 2 COOP (PROOUT), +10 PAW based schemes


 Dipole corrections
   LMONO  =      F    monopole corrections only (constant potential shift)
   LDIPOL =      F    correct potential (dipole corrections)
   IDIPOL =      0    1-x, 2-y, 3-z, 4-all directions 
   EPSILON=  1.0000000 bulk dielectric constant

 Exchange correlation treatment:
   GGA     =    --    GGA type
   LEXCH   =     8    internal setting for exchange type
   LIBXC   =     F    Libxc                    
   VOSKOWN =     0    Vosko Wilk Nusair interpolation
   LHFCALC =     F    Hartree Fock is set to
   LHFONE  =     F    Hartree Fock one center treatment
   AEXX    =    0.0000 exact exchange contribution

 Linear response parameters
   LEPSILON=     F    determine dielectric tensor
   LRPA    =     F    only Hartree local field effects (RPA)
   LNABLA  =     F    use nabla operator in PAW spheres
   LVEL    =     F    velocity operator in full k-point grid
   CSHIFT  =0.1000    complex shift for real part using Kramers Kronig
   OMEGAMAX=  -1.0    maximum frequency
   DEG_THRESHOLD= 0.2000000E-02 threshold for treating states as degnerate
   RTIME   =   -0.100 relaxation time in fs
  (WPLASMAI=    0.000 imaginary part of plasma frequency in eV, 0.658/RTIME)
   DFIELD  = 0.0000000 0.0000000 0.0000000 field for delta impulse in time
 
  Optional k-point grid parameters
   LKPOINTS_OPT  =     F    use optional k-point grid
   KPOINTS_OPT_MODE=     1    mode for optional k-point grid
 
 Orbital magnetization related:
   ORBITALMAG=     F  switch on orbital magnetization
   LCHIMAG   =     F  perturbation theory with respect to B field
   DQ        =  0.001000  dq finite difference perturbation B field
   LLRAUG    =     F  two centre corrections for induced B field



--------------------------------------------------------------------------------------------------------


 Static calculation
 charge density and potential will be updated during run
 non-spin polarized calculation
 Variant of blocked Davidson
 Davidson routine will perform the subspace rotation
 perform sub-space diagonalisation
    after iterative eigenvector-optimisation
 modified Broyden-mixing scheme, WC =      100.0
 initial mixing is a Kerker type mixing with AMIX =  0.4000 and BMIX =      1.0000
 Hartree-type preconditioning will be used
 using additional bands          354
 reciprocal scheme for non local part
 use partial core corrections
 calculate Harris-corrections to forces 
   (improved forces if not selfconsistent)
 use gradient corrections 
 use of overlap-Matrix (Vanderbilt PP)
 Methfessel and Paxton  Order N= 1 SIGMA  =   0.00


--------------------------------------------------------------------------------------------------------


  energy-cutoff  :      400.00
  volume of cell :      327.28
      direct lattice vectors                 reciprocal lattice vectors
     5.469713400  5.469713400  0.000000000     0.091412468  0.091412468 -0.091412468
     0.000000000  5.469713400  5.469713400    -0.091412468  0.091412468  0.091412468
     5.469713400  0.000000000  5.469713400     0.091412468 -0.091412468  0.091412468

  length of vectors
     7.735342873  7.735342873  7.735342873     0.158331039  0.158331039  0.158331039


 
 k-points in units of 2pi/SCALE and weight: Automatic mesh                          
   0.00000000  0.00000000  0.00000000       1.000
 
 k-points in reciprocal lattice and weights: Automatic mesh                          
   0.00000000  0.00000000  0.00000000       1.000
 
 position of ions in fractional coordinates (direct lattice) 
   0.00137146  0.00137146  0.00137146
   0.49588561  0.00137146  0.00137146
   0.00137146  0.49588561  0.00137146
   0.49999946  0.49999946  0.00000162
   0.00137146  0.00137146  0.49588561
   0.49999946  0.00000162  0.49999946
   0.00000162  0.49999946  0.49999946
   0.49999946  0.49999946  0.49999946
   0.62478972  0.12521028  0.12521028
   0.12521028  0.62478972  0.12521028
   0.62478972  0.62478972  0.12521028
   0.12521028  0.12521028  0.62478972
   0.62478972  0.12521028  0.62478972
   0.12521028  0.62478972  0.62478972
   0.62500000  0.62500000  0.62500000
 
 position of ions in cartesian coordinates  (Angst):
   0.01500303  0.01500303  0.01500303
   2.71985367  2.71985367  0.01500303
   0.01500303  2.71985367  2.71985367
   2.73486260  5.46970750  2.73486260
   2.71985367  0.01500303  2.71985367
   5.46970750  2.73486260  2.73486260
   2.73486260  2.73486260  5.46970750
   5.46970750  5.46970750  5.46970750
   4.10228505  4.10228505  1.36972867
   1.36972867  4.10228505  4.10228505
   4.10228505  6.83484143  4.10228505
   4.10228505  1.36972867  4.10228505
   6.83484143  4.10228505  4.10228505
   4.10228505  4.10228505  6.83484143
   6.83714175  6.83714175  6.83714175
 


--------------------------------------------------------------------------------------------------------


 use serial FFT for orbitals x direction half grid
 k-point   1 :   0.0000 0.0000 0.0000  plane waves:    2981

 maximum and minimum number of plane-waves per node :      2981     2981

 maximum number of plane-waves:      2981
 maximum index in each direction: 
   IXMAX=   12   IYMAX=   12   IZMAX=   12
   IXMIN=    0   IYMIN=  -10   IZMIN=  -10


 serial   3D FFT for wavefunctions
 parallel 3D FFT for charge:
    minimum data exchange during FFTs selected (reduces bandwidth)


 total amount of memory used by VASP MPI-rank0    34802. kBytes
=======================================================================

   base      :      30000. kBytes
   nonl-proj :       1179. kBytes
   fftplans  :        558. kBytes
   grid      :       2897. kBytes
   one-center:        116. kBytes
   wavefun   :         52. kBytes
 
     INWAV:  cpu time      0.0000: real time      0.0000
 Broyden mixing: mesh for mixing (old mesh)
   NGX = 25   NGY = 25   NGZ = 25
  (NGX  = 80   NGY  = 80   NGZ  = 80)
  gives a total of  15625 points

 initial charge density was supplied:
 charge density of overlapping atoms calculated
 number of electron      60.0000000 magnetization 
 keeping initial charge density in first step


--------------------------------------------------------------------------------------------------------


 Maximum index for augmentation-charges          499 (set IRDMAX)


--------------------------------------------------------------------------------------------------------


 First call to EWALD:  gamma=   0.257
 Maximum number of real-space cells 3x 3x 3
 Maximum number of reciprocal cells 3x 3x 3

    FEWALD:  cpu time      0.0028: real time      0.0028


--------------------------------------- Iteration      1(   1)  ---------------------------------------


    POTLOK:  cpu time      0.2118: real time      0.2214
    SETDIJ:  cpu time      0.0516: real time      0.0519
     EDDAV:  cpu time      5.4740: real time      5.4895
       DOS:  cpu time      0.0017: real time      0.0020
    --------------------------------------------
      LOOP:  cpu time      5.7391: real time      5.7648

 eigenvalue-minimisations  :  1152
 total energy-change (2. order) :-0.4922369E+02  (-0.2809665E+04)
 number of electron      60.0000000 magnetization 
 augmentation part       60.0000000 magnetization 

 Free energy of the ion-electron system (eV)
  ---------------------------------------------------
  alpha Z        PSCENC =        41.88619531
  Ewald energy   TEWEN  =     -1640.06298675
  -Hartree energ DENC   =      -112.10054431
  -exchange      EXHF   =         0.00000000
  -V(xc)+E(xc)   XCENC  =      -143.74822886
  PAW double counting   =      1325.78206362    -1057.95776533
  entropy T*S    EENTRO =         0.00000000
  eigenvalues    EBANDS =        -9.00861461
  atomic energy  EATOM  =      1545.98619342
  Solvation  Ediel_sol  =         0.00000000
  ---------------------------------------------------
  free energy    TOTEN  =       -49.22368752 eV

  energy without entropy =      -49.22368752  energy(sigma->0) =      -49.22368752


--------------------------------------------------------------------------------------------------------




--------------------------------------- Iteration      1(   2)  ---------------------------------------


     EDDAV:  cpu time      5.5376: real time      5.5528
       DOS:  cpu time      0.0099: real time      0.0099
    --------------------------------------------
      LOOP:  cpu time      5.5474: real time      5.5627

 eigenvalue-minimisations  :  1152
 total energy-change (2. order) :-0.1609580E+02  (-0.1609580E+02)
 number of electron      60.0000000 magnetization 
 augmentation part       60.0000000 magnetization 

 Free energy of the ion-electron system (eV)
  ---------------------------------------------------
  alpha Z        PSCENC =        41.88619531
  Ewald energy   TEWEN  =     -1640.06298675
  -Hartree energ DENC   =      -112.10054431
  -exchange      EXHF   =         0.00000000
  -V(xc)+E(xc)   XCENC  =      -143.74822886
  PAW double counting   =      1325.78206362    -1057.95776533
  entropy T*S    EENTRO =         0.00000000
  eigenvalues    EBANDS =       -25.10441581
  atomic energy  EATOM  =      1545.98619342
  Solvation  Ediel_sol  =         0.00000000
  ---------------------------------------------------
  free energy    TOTEN  =       -65.31948872 eV

  energy without entropy =      -65.31948872  energy(sigma->0) =      -65.31948872


--------------------------------------------------------------------------------------------------------




--------------------------------------- Iteration      1(   3)  ---------------------------------------


     EDDAV:  cpu time      3.4844: real time      3.4937
       DOS:  cpu time      0.0022: real time      0.0022
    --------------------------------------------
      LOOP:  cpu time      3.4865: real time      3.4959

 eigenvalue-minimisations  :   768
 total energy-change (2. order) :-0.5031871E-02  (-0.5031871E-02)
 number of electron      60.0000000 magnetization 
 augmentation part       60.0000000 magnetization 

 Free energy of the ion-electron system (eV)
  ---------------------------------------------------
  alpha Z        PSCENC =        41.88619531
  Ewald energy   TEWEN  =     -1640.06298675
  -Hartree energ DENC   =      -112.10054431
  -exchange      EXHF   =         0.00000000
  -V(xc)+E(xc)   XCENC  =      -143.74822886
  PAW double counting   =      1325.78206362    -1057.95776533
  entropy T*S    EENTRO =         0.00000000
  eigenvalues    EBANDS =       -25.10944769
  atomic energy  EATOM  =      1545.98619342
  Solvation  Ediel_sol  =         0.00000000
  ---------------------------------------------------
  free energy    TOTEN  =       -65.32452059 eV

  energy without entropy =      -65.32452059  energy(sigma->0) =      -65.32452059


--------------------------------------------------------------------------------------------------------




--------------------------------------- Iteration      1(   4)  ---------------------------------------


     EDDAV:  cpu time     13.6367: real time     13.6732
       DOS:  cpu time      0.0095: real time      0.0095
    --------------------------------------------
      LOOP:  cpu time     13.6462: real time     13.6828

 eigenvalue-minimisations  :  1536
 total energy-change (2. order) :-0.3127513E-05  (-0.3127511E-05)
 number of electron      60.0000000 magnetization 
 augmentation part       60.0000000 magnetization 

 Free energy of the ion-electron system (eV)
  ---------------------------------------------------
  alpha Z        PSCENC =        41.88619531
  Ewald energy   TEWEN  =     -1640.06298675
  -Hartree energ DENC   =      -112.10054431
  -exchange      EXHF   =         0.00000000
  -V(xc)+E(xc)   XCENC  =      -143.74822886
  PAW double counting   =      1325.78206362    -1057.95776533
  entropy T*S    EENTRO =         0.00000000
  eigenvalues    EBANDS =       -25.10945081
  atomic energy  EATOM  =      1545.98619342
  Solvation  Ediel_sol  =         0.00000000
  ---------------------------------------------------
  free energy    TOTEN  =       -65.32452371 eV

  energy without entropy =      -65.32452371  energy(sigma->0) =      -65.32452371


--------------------------------------------------------------------------------------------------------




--------------------------------------- Iteration      1(   5)  ---------------------------------------


     EDDAV:  cpu time      3.4668: real time      3.4761
       DOS:  cpu time      0.0013: real time      0.0013
    CHARGE:  cpu time      0.0742: real time      0.0747
    MIXING:  cpu time      0.0110: real time      0.0114
    --------------------------------------------
      LOOP:  cpu time      3.5534: real time      3.5635

 eigenvalue-minimisations  :   768
 total energy-change (2. order) :-0.4238245E-09  (-0.4320366E-09)
 number of electron      59.9999978 magnetization 
 augmentation part       -3.5228836 magnetization 

 Broyden mixing:
  rms(total) = 0.10236E+01    rms(broyden)= 0.10236E+01
  rms(prec ) = 0.20965E+01
  weight for this iteration     100.00

 Free energy of the ion-electron system (eV)
  ---------------------------------------------------
  alpha Z        PSCENC =        41.88619531
  Ewald energy   TEWEN  =     -1640.06298675
  -Hartree energ DENC   =      -112.10054431
  -exchange      EXHF   =         0.00000000
  -V(xc)+E(xc)   XCENC  =      -143.74822886
  PAW double counting   =      1325.78206362    -1057.95776533
  entropy T*S    EENTRO =         0.00000000
  eigenvalues    EBANDS =       -25.10945081
  atomic energy  EATOM  =      1545.98619342
  Solvation  Ediel_sol  =         0.00000000
  ---------------------------------------------------
  free energy    TOTEN  =       -65.32452372 eV

  energy without entropy =      -65.32452372  energy(sigma->0) =      -65.32452372


--------------------------------------------------------------------------------------------------------




--------------------------------------- Iteration      1(   6)  ---------------------------------------


    POTLOK:  cpu time      0.2183: real time      0.2188
    SETDIJ:  cpu time      0.0549: real time      0.0550
     EDDAV:  cpu time      8.6908: real time      8.7140
       DOS:  cpu time      0.0120: real time      0.0120
    CHARGE:  cpu time      0.0752: real time      0.0754
    MIXING:  cpu time      0.0103: real time      0.0104
    --------------------------------------------
      LOOP:  cpu time      9.0614: real time      9.0873

 eigenvalue-minimisations  :  1536
 total energy-change (2. order) : 0.2648347E+01  (-0.1451596E+01)
 number of electron      59.9999979 magnetization 
 augmentation part       -3.4550476 magnetization 

 Broyden mixing:
  rms(total) = 0.57807E+00    rms(broyden)= 0.57807E+00
  rms(prec ) = 0.10040E+01
  weight for this iteration     100.00

 eigenvalues of (default mixing * dielectric matrix)
  average eigenvalue GAMMA=   1.5767
  1.5767

 Free energy of the ion-electron system (eV)
  ---------------------------------------------------
  alpha Z        PSCENC =        41.88619531
  Ewald energy   TEWEN  =     -1640.06298675
  -Hartree energ DENC   =      -129.31174117
  -exchange      EXHF   =         0.00000000
  -V(xc)+E(xc)   XCENC  =      -141.69660947
  PAW double counting   =      1572.40531086    -1305.51806354
  entropy T*S    EENTRO =        -0.00007375
  eigenvalues    EBANDS =        -6.36440134
  atomic energy  EATOM  =      1545.98619342
  Solvation  Ediel_sol  =         0.00000000
  ---------------------------------------------------
  free energy    TOTEN  =       -62.67617642 eV

  energy without entropy =      -62.67610267  energy(sigma->0) =      -62.67615183


--------------------------------------------------------------------------------------------------------




--------------------------------------- Iteration      1(   7)  ---------------------------------------


    POTLOK:  cpu time      0.1995: real time      0.2017
    SETDIJ:  cpu time      0.0548: real time      0.0549
     EDDAV:  cpu time      3.0665: real time      3.0746
       DOS:  cpu time      0.0097: real time      0.0097
    CHARGE:  cpu time      0.1185: real time      0.1188
    MIXING:  cpu time      0.0095: real time      0.0095
    --------------------------------------------
      LOOP:  cpu time      3.4584: real time      3.4675

 eigenvalue-minimisations  :   768
 total energy-change (2. order) : 0.5371700E+00  (-0.7819424E-01)
 number of electron      59.9999979 magnetization 
 augmentation part       -3.4240465 magnetization 

 Broyden mixing:
  rms(total) = 0.30959E+00    rms(broyden)= 0.30959E+00
  rms(prec ) = 0.52503E+00
  weight for this iteration     100.00

 eigenvalues of (default mixing * dielectric matrix)
  average eigenvalue GAMMA=   1.6547
  0.9538  2.3556

 Free energy of the ion-electron system (eV)
  ---------------------------------------------------
  alpha Z        PSCENC =        41.88619531
  Ewald energy   TEWEN  =     -1640.06298675
  -Hartree energ DENC   =      -139.09374680
  -exchange      EXHF   =         0.00000000
  -V(xc)+E(xc)   XCENC  =      -140.11775656
  PAW double counting   =      1743.24949003    -1476.99183154
  entropy T*S    EENTRO =        -0.00007419
  eigenvalues    EBANDS =         3.00551062
  atomic energy  EATOM  =      1545.98619342
  Solvation  Ediel_sol  =         0.00000000
  ---------------------------------------------------
  free energy    TOTEN  =       -62.13900646 eV

  energy without entropy =      -62.13893226  energy(sigma->0) =      -62.13898173


--------------------------------------------------------------------------------------------------------




--------------------------------------- Iteration      1(   8)  ---------------------------------------


    POTLOK:  cpu time      0.1940: real time      0.1947
    SETDIJ:  cpu time      0.0507: real time      0.0508
     EDDAV:  cpu time      9.1895: real time      9.2140
       DOS:  cpu time      0.0130: real time      0.0131
    CHARGE:  cpu time      0.1934: real time      0.1939
    MIXING:  cpu time      0.0088: real time      0.0089
    --------------------------------------------
      LOOP:  cpu time      9.6495: real time      9.6753

 eigenvalue-minimisations  :  1536
 total energy-change (2. order) : 0.1087301E+00  (-0.4931325E-01)
 number of electron      59.9999980 magnetization 
 augmentation part       -3.3980016 magnetization 

 Broyden mixing:
  rms(total) = 0.51177E-01    rms(broyden)= 0.51177E-01
  rms(prec ) = 0.97842E-01
  weight for this iteration     100.00

 eigenvalues of (default mixing * dielectric matrix)
  average eigenvalue GAMMA=   1.5684
  2.3705  0.9025  1.4322

 Free energy of the ion-electron system (eV)
  ---------------------------------------------------
  alpha Z        PSCENC =        41.88619531
  Ewald energy   TEWEN  =     -1640.06298675
  -Hartree energ DENC   =      -150.40812958
  -exchange      EXHF   =         0.00000000
  -V(xc)+E(xc)   XCENC  =      -138.25514584
  PAW double counting   =      1922.26156338    -1656.62061895
  entropy T*S    EENTRO =        -0.00007467
  eigenvalues    EBANDS =        13.18272736
  atomic energy  EATOM  =      1545.98619342
  Solvation  Ediel_sol  =         0.00000000
  ---------------------------------------------------
  free energy    TOTEN  =       -62.03027632 eV

  energy without entropy =      -62.03020165  energy(sigma->0) =      -62.03025143


--------------------------------------------------------------------------------------------------------




--------------------------------------- Iteration      1(   9)  ---------------------------------------


    POTLOK:  cpu time      0.1961: real time      0.1980
    SETDIJ:  cpu time      0.0499: real time      0.0501
     EDDAV:  cpu time      5.3095: real time      5.3237
       DOS:  cpu time      0.0096: real time      0.0096
    CHARGE:  cpu time      0.0736: real time      0.0737
    MIXING:  cpu time      0.0103: real time      0.0103
    --------------------------------------------
      LOOP:  cpu time      5.6491: real time      5.6655

 eigenvalue-minimisations  :  1152
 total energy-change (2. order) :-0.9490456E-02  (-0.3443510E-02)
 number of electron      59.9999979 magnetization 
 augmentation part       -3.3984976 magnetization 

 Broyden mixing:
  rms(total) = 0.21781E-01    rms(broyden)= 0.21781E-01
  rms(prec ) = 0.41848E-01
  weight for this iteration     100.00

 eigenvalues of (default mixing * dielectric matrix)
  average eigenvalue GAMMA=   1.5140
  2.4806  1.7776  0.9975  0.8004

 Free energy of the ion-electron system (eV)
  ---------------------------------------------------
  alpha Z        PSCENC =        41.88619531
  Ewald energy   TEWEN  =     -1640.06298675
  -Hartree energ DENC   =      -150.75908007
  -exchange      EXHF   =         0.00000000
  -V(xc)+E(xc)   XCENC  =      -138.10564747
  PAW double counting   =      1920.90779315    -1655.25540490
  entropy T*S    EENTRO =        -0.00007467
  eigenvalues    EBANDS =        13.36324520
  atomic energy  EATOM  =      1545.98619342
  Solvation  Ediel_sol  =         0.00000000
  ---------------------------------------------------
  free energy    TOTEN  =       -62.03976677 eV

  energy without entropy =      -62.03969210  energy(sigma->0) =      -62.03974188


--------------------------------------------------------------------------------------------------------




--------------------------------------- Iteration      1(  10)  ---------------------------------------


    POTLOK:  cpu time      0.1925: real time      0.1931
    SETDIJ:  cpu time      0.0114: real time      0.0114
     EDDAV:  cpu time      5.8099: real time      5.8252
       DOS:  cpu time      0.0119: real time      0.0120
    CHARGE:  cpu time      0.1941: real time      0.1947
    MIXING:  cpu time      0.0090: real time      0.0090
    --------------------------------------------
      LOOP:  cpu time      6.2288: real time      6.2453

 eigenvalue-minimisations  :  1152
 total energy-change (2. order) :-0.3865915E-02  (-0.4850975E-03)
 number of electron      59.9999979 magnetization 
 augmentation part       -3.3989008 magnetization 

 Broyden mixing:
  rms(total) = 0.11373E-01    rms(broyden)= 0.11373E-01
  rms(prec ) = 0.20630E-01
  weight for this iteration     100.00

 eigenvalues of (default mixing * dielectric matrix)
  average eigenvalue GAMMA=   1.5691
  2.6920  2.2187  1.0717  1.0717  0.7916

 Free energy of the ion-electron system (eV)
  ---------------------------------------------------
  alpha Z        PSCENC =        41.88619531
  Ewald energy   TEWEN  =     -1640.06298675
  -Hartree energ DENC   =      -151.13671199
  -exchange      EXHF   =         0.00000000
  -V(xc)+E(xc)   XCENC  =      -138.02680121
  PAW double counting   =      1920.43532044    -1654.77874039
  entropy T*S    EENTRO =        -0.00007467
  eigenvalues    EBANDS =        13.65397315
  atomic energy  EATOM  =      1545.98619342
  Solvation  Ediel_sol  =         0.00000000
  ---------------------------------------------------
  free energy    TOTEN  =       -62.04363269 eV

  energy without entropy =      -62.04355801  energy(sigma->0) =      -62.04360780


--------------------------------------------------------------------------------------------------------




--------------------------------------- Iteration      1(  11)  ---------------------------------------


    POTLOK:  cpu time      0.1891: real time      0.1895
    SETDIJ:  cpu time      0.0137: real time      0.0137
     EDDAV:  cpu time      3.3234: real time      3.3321
       DOS:  cpu time      0.0095: real time      0.0095
    CHARGE:  cpu time      0.0728: real time      0.0731
    MIXING:  cpu time      0.0097: real time      0.0097
    --------------------------------------------
      LOOP:  cpu time      3.6181: real time      3.6277

 eigenvalue-minimisations  :   768
 total energy-change (2. order) :-0.2175007E-02  (-0.2649881E-03)
 number of electron      59.9999979 magnetization 
 augmentation part       -3.3996828 magnetization 

 Broyden mixing:
  rms(total) = 0.31291E-02    rms(broyden)= 0.31291E-02
  rms(prec ) = 0.60584E-02
  weight for this iteration     100.00

 eigenvalues of (default mixing * dielectric matrix)
  average eigenvalue GAMMA=   1.6625
  2.9423  2.4083  1.7530  0.7759  1.0479  1.0479

 Free energy of the ion-electron system (eV)
  ---------------------------------------------------
  alpha Z        PSCENC =        41.88619531
  Ewald energy   TEWEN  =     -1640.06298675
  -Hartree energ DENC   =      -151.19483059
  -exchange      EXHF   =         0.00000000
  -V(xc)+E(xc)   XCENC  =      -137.99234371
  PAW double counting   =      1914.83949111    -1649.16337025
  entropy T*S    EENTRO =        -0.00007467
  eigenvalues    EBANDS =        13.65591843
  atomic energy  EATOM  =      1545.98619342
  Solvation  Ediel_sol  =         0.00000000
  ---------------------------------------------------
  free energy    TOTEN  =       -62.04580769 eV

  energy without entropy =      -62.04573302  energy(sigma->0) =      -62.04578280


--------------------------------------------------------------------------------------------------------




--------------------------------------- Iteration      1(  12)  ---------------------------------------


    POTLOK:  cpu time      0.1982: real time      0.1986
    SETDIJ:  cpu time      0.0481: real time      0.0482
     EDDAV:  cpu time      8.4952: real time      8.5179
       DOS:  cpu time      0.0031: real time      0.0031
    CHARGE:  cpu time      0.1147: real time      0.1150
    MIXING:  cpu time      0.0095: real time      0.0095
    --------------------------------------------
      LOOP:  cpu time      8.8688: real time      8.8924

 eigenvalue-minimisations  :  1536
 total energy-change (2. order) :-0.2305249E-03  (-0.3409153E-04)
 number of electron      59.9999979 magnetization 
 augmentation part       -3.3996701 magnetization 

 Broyden mixing:
  rms(total) = 0.83162E-03    rms(broyden)= 0.83162E-03
  rms(prec ) = 0.15001E-02
  weight for this iteration     100.00

 eigenvalues of (default mixing * dielectric matrix)
  average eigenvalue GAMMA=   1.7426
  3.2146  2.5693  2.0685  1.4807  0.7756  1.0919  0.9977

 Free energy of the ion-electron system (eV)
  ---------------------------------------------------
  alpha Z        PSCENC =        41.88619531
  Ewald energy   TEWEN  =     -1640.06298675
  -Hartree energ DENC   =      -151.27013326
  -exchange      EXHF   =         0.00000000
  -V(xc)+E(xc)   XCENC  =      -137.98482779
  PAW double counting   =      1913.55507156    -1647.87677415
  entropy T*S    EENTRO =        -0.00007467
  eigenvalues    EBANDS =        13.72129811
  atomic energy  EATOM  =      1545.98619342
  Solvation  Ediel_sol  =         0.00000000
  ---------------------------------------------------
  free energy    TOTEN  =       -62.04603822 eV

  energy without entropy =      -62.04596355  energy(sigma->0) =      -62.04601333


--------------------------------------------------------------------------------------------------------




--------------------------------------- Iteration      1(  13)  ---------------------------------------


    POTLOK:  cpu time      0.2064: real time      0.2071
    SETDIJ:  cpu time      0.0558: real time      0.0559
     EDDAV:  cpu time      3.4278: real time      3.4369
       DOS:  cpu time      0.0034: real time      0.0034
    CHARGE:  cpu time      0.0765: real time      0.0767
    MIXING:  cpu time      0.0093: real time      0.0094
    --------------------------------------------
      LOOP:  cpu time      3.7792: real time      3.7894

 eigenvalue-minimisations  :   768
 total energy-change (2. order) :-0.1348045E-04  (-0.1945063E-05)
 number of electron      59.9999979 magnetization 
 augmentation part       -3.3996041 magnetization 

 Broyden mixing:
  rms(total) = 0.13905E-03    rms(broyden)= 0.13905E-03
  rms(prec ) = 0.30932E-03
  weight for this iteration     100.00

 eigenvalues of (default mixing * dielectric matrix)
  average eigenvalue GAMMA=   1.6754
  3.2385  2.5951  2.0755  1.5394  0.7764  1.0140  1.0821  1.0821

 Free energy of the ion-electron system (eV)
  ---------------------------------------------------
  alpha Z        PSCENC =        41.88619531
  Ewald energy   TEWEN  =     -1640.06298675
  -Hartree energ DENC   =      -151.29385140
  -exchange      EXHF   =         0.00000000
  -V(xc)+E(xc)   XCENC  =      -137.98464673
  PAW double counting   =      1913.48977370    -1647.81182701
  entropy T*S    EENTRO =        -0.00007467
  eigenvalues    EBANDS =        13.74517242
  atomic energy  EATOM  =      1545.98619342
  Solvation  Ediel_sol  =         0.00000000
  ---------------------------------------------------
  free energy    TOTEN  =       -62.04605170 eV

  energy without entropy =      -62.04597703  energy(sigma->0) =      -62.04602681


--------------------------------------------------------------------------------------------------------




--------------------------------------- Iteration      1(  14)  ---------------------------------------


    POTLOK:  cpu time      0.1906: real time      0.1910
    SETDIJ:  cpu time      0.0546: real time      0.0548
     EDDAV:  cpu time      8.3518: real time      8.3742
       DOS:  cpu time      0.0032: real time      0.0032
    --------------------------------------------
      LOOP:  cpu time      8.6002: real time      8.6231

 eigenvalue-minimisations  :  1536
 total energy-change (2. order) :-0.2811869E-06  (-0.4360667E-07)
 number of electron      59.9999979 magnetization 
 augmentation part       -3.3996041 magnetization 

 Free energy of the ion-electron system (eV)
  ---------------------------------------------------
  alpha Z        PSCENC =        41.88619531
  Ewald energy   TEWEN  =     -1640.06298675
  -Hartree energ DENC   =      -151.29464873
  -exchange      EXHF   =         0.00000000
  -V(xc)+E(xc)   XCENC  =      -137.98471768
  PAW double counting   =      1913.51960785    -1647.84166512
  entropy T*S    EENTRO =        -0.00007467
  eigenvalues    EBANDS =        13.74604440
  atomic energy  EATOM  =      1545.98619342
  Solvation  Ediel_sol  =         0.00000000
  ---------------------------------------------------
  free energy    TOTEN  =       -62.04605198 eV

  energy without entropy =      -62.04597731  energy(sigma->0) =      -62.04602709


--------------------------------------------------------------------------------------------------------




 average (electrostatic) potential at core
  the test charge radii are     1.1243
  (the norm of the test charge is              1.0000)
       1 -68.3174       2 -68.3174       3 -68.3174       4 -67.2604       5 -68.3174
       6 -67.2604       7 -67.2604       8 -67.2604       9 -67.5733      10 -67.5733
      11 -67.5733      12 -67.5733      13 -67.5733      14 -67.5733      15 -67.0469
 
 
 
 E-fermi :   5.6927     XC(G=0):  -8.9773     alpha+bet :-10.6543

 Fermi energy:         5.6926948769

 k-point     1 :       0.0000    0.0000    0.0000
  band No.  band energies     occupation 
      1      -6.7265      2.00000
      2      -4.6428      2.00000
      3      -4.6428      2.00000
      4      -4.6428      2.00000
      5      -3.9413      2.00000
      6      -2.8696      2.00000
      7      -2.8696      2.00000
      8      -2.7277      2.00000
      9      -2.7277      2.00000
     10      -2.7277      2.00000
     11      -2.0695      2.00000
     12      -1.7752      2.00000
     13      -1.7752      2.00000
     14      -1.7752      2.00000
     15       1.0112      2.00000
     16       2.0331      2.00000
     17       2.0331      2.00000
     18       2.0331      2.00000
     19       2.5838      2.00000
     20       2.5838      2.00000
     21       2.5838      2.00000
     22       3.6841      2.00000
     23       3.6841      2.00000
     24       3.6841      2.00000
     25       3.7118      2.00000
     26       3.7118      2.00000
     27       4.5854      2.00000
     28       4.5854      2.00000
     29       4.5854      2.00000
     30       5.6927      0.66785
     31       5.6927      0.66608
     32       5.6927      0.66608
     33       5.8058      0.00000
     34       5.8058      0.00000
     35       5.8974      0.00000
     36       6.0932      0.00000
     37       6.0932      0.00000
     38       6.0932      0.00000
     39       6.4703      0.00000
     40       6.4703      0.00000
     41       6.4703      0.00000
     42       7.5341      0.00000
     43       7.7686      0.00000
     44       7.7686      0.00000
     45       7.7686      0.00000
     46       8.1670      0.00000
     47       8.1670      0.00000
     48       8.1670      0.00000
     49       8.5823      0.00000
     50       8.5823      0.00000
     51       9.4349      0.00000
     52       9.4349      0.00000
     53       9.4349      0.00000
     54      10.0193      0.00000
     55      12.6556      0.00000
     56      12.8445      0.00000
     57      12.8445      0.00000
     58      12.8491      0.00000
     59      12.8491      0.00000
     60      12.8491      0.00000
     61      13.1961      0.00000
     62      14.7819      0.00000
     63      14.7819      0.00000
     64      14.7819      0.00000
     65      15.3329      0.00000
     66      15.3329      0.00000
     67      15.3329      0.00000
     68      15.3901      0.00000
     69      15.3901      0.00000
     70      15.3901      0.00000
     71      15.5034      0.00000
     72      15.5034      0.00000
     73      15.6950      0.00000
     74      15.6950      0.00000
     75      15.6950      0.00000
     76      15.8239      0.00000
     77      15.8239      0.00000
     78      15.8239      0.00000
     79      16.0840      0.00000
     80      16.0840      0.00000
     81      16.0840      0.00000
     82      16.1263      0.00000
     83      16.1263      0.00000
     84      16.1263      0.00000
     85      16.2178      0.00000
     86      16.2178      0.00000
     87      16.2178      0.00000
     88      16.4921      0.00000
     89      16.5673      0.00000
     90      16.5673      0.00000
     91      16.8090      0.00000
     92      16.8090      0.00000
     93      16.8090      0.00000
     94      17.2547      0.00000
     95      17.4287      0.00000
     96      17.4287      0.00000
     97      17.4287      0.00000
     98      17.5128      0.00000
     99      17.5128      0.00000
    100      17.5128      0.00000
    101      17.6666      0.00000
    102      17.6666      0.00000
    103      17.9122      0.00000
    104      18.0613      0.00000
    105      18.0613      0.00000
    106      18.0613      0.00000
    107      18.8124      0.00000
    108      18.8124      0.00000
    109      18.9730      0.00000
    110      20.3832      0.00000
    111      20.9711      0.00000
    112      20.9711      0.00000
    113      20.9711      0.00000
    114      23.6113      0.00000
    115      23.6113      0.00000
    116      23.6113      0.00000
    117      23.7127      0.00000
    118      24.2745      0.00000
    119      24.2745      0.00000
    120      24.2745      0.00000
    121      24.3048      0.00000
    122      24.3048      0.00000
    123      24.3419      0.00000
    124      24.5370      0.00000
    125      24.5370      0.00000
    126      24.5370      0.00000
    127      24.7792      0.00000
    128      24.7792      0.00000
    129      24.7792      0.00000
    130      24.8671      0.00000
    131      24.8671      0.00000
    132      24.8671      0.00000
    133      24.9971      0.00000
    134      24.9971      0.00000
    135      24.9971      0.00000
    136      25.0522      0.00000
    137      25.6264      0.00000
    138      25.6264      0.00000
    139      25.6264      0.00000
    140      26.0984      0.00000
    141      26.0984      0.00000
    142      26.2048      0.00000
    143      26.2048      0.00000
    144      26.2048      0.00000
    145      26.3232      0.00000
    146      26.3232      0.00000
    147      26.3232      0.00000
    148      26.3776      0.00000
    149      26.3776      0.00000
    150      26.4496      0.00000
    151      26.4496      0.00000
    152      26.4496      0.00000
    153      26.6732      0.00000
    154      26.6732      0.00000
    155      26.6732      0.00000
    156      26.9736      0.00000
    157      27.5261      0.00000
    158      27.5261      0.00000
    159      27.5261      0.00000
    160      27.9376      0.00000
    161      27.9376      0.00000
    162      28.4495      0.00000
    163      28.4495      0.00000
    164      28.4495      0.00000
    165      29.4728      0.00000
    166      29.4728      0.00000
    167      30.2644      0.00000
    168      30.2644      0.00000
    169      30.2644      0.00000
    170      30.3654      0.00000
    171      30.3698      0.00000
    172      30.6119      0.00000
    173      30.6119      0.00000
    174      30.7418      0.00000
    175      30.7418      0.00000
    176      30.7418      0.00000
    177      31.0139      0.00000
    178      31.0140      0.00000
    179      31.0140      0.00000
    180      31.3552      0.00000
    181      31.3552      0.00000
    182      31.3552      0.00000
    183      31.8156      0.00000
    184      31.8156      0.00000
    185      31.9432      0.00000
    186      31.9432      0.00000
    187      31.9432      0.00000
    188      32.2550      0.00000
    189      32.2550      0.00000
    190      32.2550      0.00000
    191      32.9897      0.00000
    192      32.9897      0.00000
    193      32.9897      0.00000
    194      33.2414      0.00000
    195      33.2414      0.00000
    196      33.3804      0.00000
    197      33.3804      0.00000
    198      33.3804      0.00000
    199      33.4435      0.00000
    200      33.8263      0.00000
    201      33.8264      0.00000
    202      33.8264      0.00000
    203      34.3539      0.00000
    204      34.3540      0.00000
    205      34.3540      0.00000
    206      35.5057      0.00000
    207      36.1625      0.00000
    208      36.1625      0.00000
    209      36.1625      0.00000
    210      36.6437      0.00000
    211      36.6437      0.00000
    212      36.6437      0.00000
    213      36.8575      0.00000
    214      36.8575      0.00000
    215      36.8576      0.00000
    216      37.2054      0.00000
    217      37.2054      0.00000
    218      37.4581      0.00000
    219      37.4582      0.00000
    220      37.4582      0.00000
    221      37.4874      0.00000
    222      37.4874      0.00000
    223      37.4874      0.00000
    224      37.7849      0.00000
    225      37.7849      0.00000
    226      38.1446      0.00000
    227      38.1446      0.00000
    228      38.1446      0.00000
    229      38.1757      0.00000
    230      38.6107      0.00000
    231      38.6107      0.00000
    232      38.6107      0.00000
    233      38.8268      0.00000
    234      38.8268      0.00000
    235      38.8268      0.00000
    236      38.8669      0.00000
    237      38.8669      0.00000
    238      38.8669      0.00000
    239      39.0399      0.00000
    240      39.0979      0.00000
    241      39.0979      0.00000
    242      39.9091      0.00000
    243      39.9091      0.00000
    244      39.9091      0.00000
    245      40.0271      0.00000
    246      40.2609      0.00000
    247      40.2609      0.00000
    248      40.2609      0.00000
    249      40.8546      0.00000
    250      41.3595      0.00000
    251      41.4001      0.00000
    252      41.4002      0.00000
    253      41.4002      0.00000
    254      41.4600      0.00000
    255      41.4600      0.00000
    256      41.4600      0.00000
    257      41.6833      0.00000
    258      41.6833      0.00000
    259      41.6833      0.00000
    260      41.8006      0.00000
    261      41.8006      0.00000
    262      42.5646      0.00000
    263      42.7823      0.00000
    264      42.7823      0.00000
    265      42.7825      0.00000
    266      42.8919      0.00000
    267      42.8919      0.00000
    268      42.8919      0.00000
    269      44.0526      0.00000
    270      44.0526      0.00000
    271      44.0901      0.00000
    272      44.0901      0.00000
    273      44.0901      0.00000
    274      44.5471      0.00000
    275      44.5471      0.00000
    276      44.5471      0.00000
    277      45.0720      0.00000
    278      45.0720      0.00000
    279      45.1384      0.00000
    280      45.1384      0.00000
    281      45.1384      0.00000
    282      45.2884      0.00000
    283      45.2884      0.00000
    284      45.2884      0.00000
    285      45.3749      0.00000
    286      45.3749      0.00000
    287      45.3749      0.00000
    288      45.5828      0.00000
    289      45.5828      0.00000
    290      46.1406      0.00000
    291      46.1406      0.00000
    292      46.1406      0.00000
    293      46.4735      0.00000
    294      46.4735      0.00000
    295      46.5700      0.00000
    296      46.5700      0.00000
    297      46.5700      0.00000
    298      46.8281      0.00000
    299      47.0969      0.00000
    300      47.0969      0.00000
    301      47.0969      0.00000
    302      47.2803      0.00000
    303      47.2803      0.00000
    304      47.2803      0.00000
    305      47.4598      0.00000
    306      47.4598      0.00000
    307      47.4598      0.00000
    308      47.9174      0.00000
    309      48.0531      0.00000
    310      48.0853      0.00000
    311      48.0853      0.00000
    312      48.3319      0.00000
    313      48.3319      0.00000
    314      48.3319      0.00000
    315      48.5964      0.00000
    316      48.5964      0.00000
    317      48.5964      0.00000
    318      49.0269      0.00000
    319      49.0269      0.00000
    320      49.0269      0.00000
    321      49.2059      0.00000
    322      49.2059      0.00000
    323      49.2059      0.00000
    324      49.7210      0.00000
    325      49.7562      0.00000
    326      49.7562      0.00000
    327      49.7562      0.00000
    328      49.9443      0.00000
    329      49.9443      0.00000
    330      49.9443      0.00000
    331      50.3106      0.00000
    332      50.3106      0.00000
    333      50.3106      0.00000
    334      50.8111      0.00000
    335      50.8111      0.00000
    336      50.8112      0.00000
    337      51.1959      0.00000
    338      51.1959      0.00000
    339      51.1960      0.00000
    340      51.2739      0.00000
    341      51.2739      0.00000
    342      51.2739      0.00000
    343      51.6539      0.00000
    344      51.6539      0.00000
    345      52.7019      0.00000
    346      52.7019      0.00000
    347      52.7020      0.00000
    348      52.7546      0.00000
    349      52.7546      0.00000
    350      52.7546      0.00000
    351      53.2557      0.00000
    352      53.2557      0.00000
    353      53.2557      0.00000
    354      53.3567      0.00000
    355      53.3567      0.00000
    356      53.3568      0.00000
    357      53.7182      0.00000
    358      53.8005      0.00000
    359      53.8005      0.00000
    360      54.4954      0.00000
    361      55.2140      0.00000
    362      55.2156      0.00000
    363      55.2156      0.00000
    364      55.2156      0.00000
    365      55.4843      0.00000
    366      55.4843      0.00000
    367      55.4844      0.00000
    368      55.9959      0.00000
    369      55.9959      0.00000
    370      55.9959      0.00000
    371      56.2501      0.00000
    372      56.2501      0.00000
    373      56.3415      0.00000
    374      56.3415      0.00000
    375      56.3415      0.00000
    376      56.5399      0.00000
    377      56.8459      0.00000
    378      56.8460      0.00000
    379      56.8460      0.00000
    380      57.1185      0.00000
    381      57.1185      0.00000
    382      57.1185      0.00000
    383      57.2836      0.00000
    384      57.2836      0.00000


--------------------------------------------------------------------------------------------------------


 soft charge-density along one line, spin component           1
         0         1         2         3         4         5         6         7         8         9
 total charge-density along one line
 
 pseudopotential strength for first ion, spin component:           1
 17.195 -18.306   0.000   0.000   0.000  -0.002  -0.002  -0.002
-18.306  50.626  -0.003  -0.003  -0.003   0.010   0.010   0.010
  0.000  -0.003   3.865   0.001   0.001 -11.317  -0.004  -0.004
  0.000  -0.003   0.001   3.865   0.001  -0.004 -11.317  -0.004
  0.000  -0.003   0.001   0.001   3.865  -0.004  -0.004 -11.317
 -0.002   0.010 -11.317  -0.004  -0.004  36.097   0.011   0.011
 -0.002   0.010  -0.004 -11.317  -0.004   0.011  36.097   0.011
 -0.002   0.010  -0.004  -0.004 -11.317   0.011   0.011  36.097
  0.004   0.003  -0.001   0.001  -0.001   0.001  -0.003   0.001
  0.004   0.003  -0.001  -0.001   0.001   0.001   0.001  -0.003
  0.000   0.000   0.001  -0.001   0.001  -0.000   0.001  -0.000
  0.004   0.003   0.001  -0.001  -0.001  -0.003   0.001   0.001
  0.000   0.000   0.001  -0.000  -0.001  -0.001   0.000   0.001
 -0.018   0.006   0.002  -0.004   0.002  -0.004   0.012  -0.004
 -0.018   0.006   0.002   0.002  -0.004  -0.004  -0.004   0.012
 -0.000   0.000  -0.001   0.002  -0.001   0.001  -0.002   0.001
 -0.018   0.006  -0.004   0.002   0.002   0.012  -0.004  -0.004
 -0.000   0.000  -0.002   0.000   0.002   0.002  -0.000  -0.002
 total augmentation occupancy for first ion, spin component:           1
  1.606   0.012   0.072   0.072   0.072  -0.002  -0.002  -0.002  -0.022  -0.022   0.000  -0.022   0.000  -0.001  -0.001  -0.000
  0.012   0.000  -0.004  -0.004  -0.004  -0.000  -0.000  -0.000  -0.000  -0.000  -0.000  -0.000  -0.000  -0.000  -0.000  -0.000
  0.072  -0.004   1.052  -0.176  -0.176   0.018  -0.004  -0.004  -0.055  -0.055   0.001   0.111   0.002   0.000   0.000   0.000
  0.072  -0.004  -0.176   1.052  -0.176  -0.004   0.018  -0.004   0.111  -0.055  -0.002  -0.055   0.000  -0.000   0.000  -0.000
  0.072  -0.004  -0.176  -0.176   1.052  -0.004  -0.004   0.018  -0.055   0.111   0.001  -0.055  -0.002   0.000  -0.000   0.000
 -0.002  -0.000   0.018  -0.004  -0.004   0.000  -0.000  -0.000  -0.001  -0.001   0.000   0.002   0.000  -0.000  -0.000   0.000
 -0.002  -0.000  -0.004   0.018  -0.004  -0.000   0.000  -0.000   0.002  -0.001  -0.000  -0.001   0.000   0.000  -0.000  -0.000
 -0.002  -0.000  -0.004  -0.004   0.018  -0.000  -0.000   0.000  -0.001   0.002   0.000  -0.001  -0.000  -0.000   0.000   0.000
 -0.022  -0.000  -0.055   0.111  -0.055  -0.001   0.002  -0.001   0.019  -0.008   0.002  -0.008   0.000  -0.000   0.000  -0.000
 -0.022  -0.000  -0.055  -0.055   0.111  -0.001  -0.001   0.002  -0.008   0.019  -0.001  -0.008   0.001   0.000  -0.000   0.000
 -0.000  -0.000   0.001  -0.002   0.001   0.000  -0.000   0.000   0.002  -0.001   0.008  -0.001   0.000  -0.000   0.000  -0.000
 -0.022  -0.000   0.111  -0.055  -0.055   0.002  -0.001  -0.001  -0.008  -0.008  -0.001   0.019  -0.001   0.000   0.000   0.000
  0.000  -0.000   0.002   0.000  -0.002   0.000   0.000  -0.000   0.000   0.001   0.000  -0.001   0.008   0.000  -0.000  -0.000
 -0.001  -0.000   0.000  -0.000   0.000  -0.000   0.000  -0.000  -0.000   0.000  -0.000   0.000   0.000   0.000  -0.000   0.000
 -0.001  -0.000   0.000   0.000  -0.000  -0.000  -0.000   0.000   0.000  -0.000   0.000   0.000  -0.000  -0.000   0.000  -0.000
 -0.000  -0.000   0.000  -0.000   0.000   0.000  -0.000   0.000  -0.000   0.000  -0.000   0.000   0.000   0.000  -0.000   0.000
 -0.001  -0.000  -0.000   0.000   0.000   0.000  -0.000  -0.000   0.000   0.000   0.000  -0.000   0.000  -0.000  -0.000  -0.000
  0.000  -0.000   0.000  -0.000  -0.000   0.000   0.000  -0.000   0.000  -0.000  -0.000   0.000  -0.000   0.000   0.000   0.000


------------------------ aborting loop because EDIFF is reached ----------------------------------------


    CHARGE:  cpu time      0.1125: real time      0.1128
    FORLOC:  cpu time      0.0078: real time      0.0078
    FORNL :  cpu time      0.0900: real time      0.0902
    STRESS:  cpu time      0.1137: real time      0.1143
    FORCOR:  cpu time      0.1686: real time      0.1692
    FORHAR:  cpu time      0.0654: real time      0.0657
    MIXING:  cpu time      0.0019: real time      0.0019
    OFIELD:  cpu time      0.0001: real time      0.0002

  FORCE on cell =-STRESS in cart. coord.  units (eV):
  Direction    XX          YY          ZZ          XY          YZ          ZX
  --------------------------------------------------------------------------------------
  Alpha Z    41.88620    41.88620    41.88620
  Ewald    -546.68937  -546.68937  -546.68937     0.00000     0.00000     0.00000
  Hartree    50.43157    50.43157    50.43157     0.00000     0.00000     0.00000
  E(xc)    -187.38861  -187.38861  -187.38861    -0.00001    -0.00001    -0.00001
  Local    -230.33470  -230.33470  -230.33470     0.00005     0.00005     0.00005
  n-local   521.52823   521.52823   521.52823     0.00107     0.00107     0.00107
  augment   -79.27752   -79.27752   -79.27752    -0.00007    -0.00007    -0.00007
  Kinetic   436.67492   436.67492   436.67492     0.00234     0.00234     0.00234
  Fock        0.00000     0.00000     0.00000     0.00000     0.00000     0.00000
  -------------------------------------------------------------------------------------
  Total       6.83071     6.83071     6.83071     0.00000     0.00000    -0.00000
  in kB      33.43898    33.43898    33.43898     0.00000     0.00000    -0.00000
  external pressure =       33.44 kB  Pullay stress =        0.00 kB


 VOLUME and BASIS-vectors are now :
 -----------------------------------------------------------------------------
  energy-cutoff  :      400.00
  volume of cell :      327.28
      direct lattice vectors                 reciprocal lattice vectors
     5.469713400  5.469713400  0.000000000     0.091412468  0.091412468 -0.091412468
     0.000000000  5.469713400  5.469713400    -0.091412468  0.091412468  0.091412468
     5.469713400  0.000000000  5.469713400     0.091412468 -0.091412468  0.091412468

  length of vectors
     7.735342873  7.735342873  7.735342873     0.158331039  0.158331039  0.158331039


 FORCES acting on ions
    electron-ion (+dipol)            ewald-force                    non-local-force                 convergence-correction
 -----------------------------------------------------------------------------------------------
   -.185E+02 -.185E+02 -.185E+02   0.189E+02 0.189E+02 0.189E+02   -.115E+01 -.115E+01 -.115E+01   0.916E-04 0.916E-04 0.916E-04
   0.185E+02 0.185E+02 -.185E+02   -.189E+02 -.189E+02 0.189E+02   0.115E+01 0.115E+01 -.115E+01   -.916E-04 -.916E-04 0.916E-04
   -.185E+02 0.185E+02 0.185E+02   0.189E+02 -.189E+02 -.189E+02   -.115E+01 0.115E+01 0.115E+01   0.916E-04 -.916E-04 -.916E-04
   -.164E+01 0.164E+01 -.164E+01   0.122E+01 -.122E+01 0.122E+01   0.166E+00 -.166E+00 0.166E+00   -.157E-03 0.157E-03 -.157E-03
   0.185E+02 -.185E+02 0.185E+02   -.189E+02 0.189E+02 -.189E+02   0.115E+01 -.115E+01 0.115E+01   -.916E-04 0.916E-04 -.916E-04
   0.164E+01 -.164E+01 -.164E+01   -.122E+01 0.122E+01 0.122E+01   -.166E+00 0.166E+00 0.166E+00   0.157E-03 -.157E-03 -.157E-03
   -.164E+01 -.164E+01 0.164E+01   0.122E+01 0.122E+01 -.122E+01   0.166E+00 0.166E+00 -.166E+00   -.157E-03 -.157E-03 0.157E-03
   0.164E+01 0.164E+01 0.164E+01   -.122E+01 -.122E+01 -.122E+01   -.166E+00 -.166E+00 -.166E+00   0.157E-03 0.157E-03 0.157E-03
   -.696E-06 -.743E-06 0.187E+01   0.199E-11 0.201E-11 -.138E+01   0.178E-17 0.139E-17 0.232E+00   0.111E-09 0.111E-09 0.161E-03
   0.187E+01 -.743E-06 -.696E-06   -.138E+01 0.203E-11 0.202E-11   0.232E+00 -.210E-17 0.205E-18   0.161E-03 0.111E-09 0.111E-09
   -.140E-05 -.187E+01 -.140E-05   -.104E-11 0.138E+01 -.106E-11   -.350E-18 -.232E+00 -.122E-17   0.394E-09 -.161E-03 0.394E-09
   -.687E-06 0.187E+01 -.687E-06   0.203E-11 -.138E+01 0.201E-11   -.124E-17 0.232E+00 -.124E-17   0.111E-09 0.161E-03 0.111E-09
   -.187E+01 -.145E-05 -.140E-05   0.138E+01 -.105E-11 -.103E-11   -.232E+00 -.101E-17 -.821E-18   -.161E-03 0.394E-09 0.394E-09
   -.140E-05 -.145E-05 -.187E+01   -.105E-11 -.103E-11 0.138E+01   -.560E-18 -.284E-17 -.232E+00   0.394E-09 0.394E-09 -.161E-03
   -.107E-05 -.113E-05 -.107E-05   0.439E-12 0.470E-12 0.439E-12   -.236E-19 -.769E-20 -.211E-19   0.957E-10 0.957E-10 0.957E-10
 -----------------------------------------------------------------------------------------------
   0.140E-06 0.116E-06 0.140E-06   0.104E-13 0.561E-14 0.102E-13   -.306E-15 -.531E-15 -.722E-15   0.429E-09 0.429E-09 0.429E-09
 
 
 POSITION                                       TOTAL-FORCE (eV/Angst)
 -----------------------------------------------------------------------------------
      0.01500      0.01500      0.01500        -0.765703     -0.765703     -0.765703
      2.71985      2.71985      0.01500         0.765703      0.765703     -0.765703
      0.01500      2.71985      2.71985        -0.765703      0.765703      0.765703
      2.73486      5.46971      2.73486        -0.247398      0.247398     -0.247398
      2.71985      0.01500      2.71985         0.765703     -0.765703      0.765703
      5.46971      2.73486      2.73486         0.247398     -0.247398     -0.247398
      2.73486      2.73486      5.46971        -0.247398     -0.247398      0.247398
      5.46971      5.46971      5.46971         0.247398      0.247398      0.247398
      4.10229      4.10229      1.36973        -0.000000     -0.000000      0.716044
      1.36973      4.10229      4.10229         0.716044     -0.000000     -0.000000
      4.10229      6.83484      4.10229        -0.000000     -0.716044     -0.000000
      4.10229      1.36973      4.10229        -0.000000      0.716044     -0.000000
      6.83484      4.10229      4.10229        -0.716044     -0.000000     -0.000000
      4.10229      4.10229      6.83484        -0.000000     -0.000000     -0.716044
      6.83714      6.83714      6.83714        -0.000000     -0.000000     -0.000000
 -----------------------------------------------------------------------------------
    total drift:                                0.000000      0.000000      0.000000


--------------------------------------------------------------------------------------------------------



  FREE ENERGIE OF THE ION-ELECTRON SYSTEM (eV)
  ---------------------------------------------------
  free  energy   TOTEN  =       -62.04605198 eV

  energy  without entropy=      -62.04597731  energy(sigma->0) =      -62.04602709
 


--------------------------------------------------------------------------------------------------------


    POTLOK:  cpu time      0.2441: real time      0.2449


--------------------------------------------------------------------------------------------------------


 writing wavefunctions
     LOOP+:  cpu time     94.7317: real time     95.0226
    4ORBIT:  cpu time      0.0000: real time      0.0000

 total amount of memory used by VASP MPI-rank0    34802. kBytes
=======================================================================

   base      :      30000. kBytes
   nonl-proj :       1179. kBytes
   fftplans  :        558. kBytes
   grid      :       2897. kBytes
   one-center:        116. kBytes
   wavefun   :         52. kBytes
 
  
  
 General timing and accounting informations for this job:
 ========================================================
  
                  Total CPU time used (sec):      102.755
                            User time (sec):       71.791
                          System time (sec):       30.963
                         Elapsed time (sec):      103.431
  
                   Maximum memory used (kb):      253656.
                   Average memory used (kb):          N/A
  
                          Minor page faults:        92094
                          Major page faults:            0
                 Voluntary context switches:         1599
