 vasp.6.3.0 20Jan22 (build Mar 03 2022 12:53:00) gamma-only                     
  
 executed on             LinuxIFC date 2022.03.18  15:30:19
 running on  384 total cores
 distrk:  each k-point on  384 cores,    1 groups
 distr:  one band on NCORE=   1 cores,  384 groups


--------------------------------------------------------------------------------------------------------


 INCAR:
   ENCUT = 400
   SIGMA = 0.0001
   EDIFF = 1E-6
   LHFCALC = .TRUE.
   AEXX = 1.0
   ISYM = -1
   ALGO = sub
   NELM = 1
   NBANDS = 5961

 POTCAR:    PAW Si_GW 04May2012                   
 -----------------------------------------------------------------------------
|                                                                             |
|           W    W    AA    RRRRR   N    N  II  N    N   GGGG   !!!           |
|           W    W   A  A   R    R  NN   N  II  NN   N  G    G  !!!           |
|           W    W  A    A  R    R  N N  N  II  N N  N  G       !!!           |
|           W WW W  AAAAAA  RRRRR   N  N N  II  N  N N  G  GGG   !            |
|           WW  WW  A    A  R   R   N   NN  II  N   NN  G    G                |
|           W    W  A    A  R    R  N    N  II  N    N   GGGG   !!!           |
|                                                                             |
|     For optimal performance we recommend to set                             |
|       NCORE = 2 up to number-of-cores-per-socket                            |
|     NCORE specifies how many cores store one orbital (NPAR=cpu/NCORE).      |
|     This setting can greatly improve the performance of VASP for DFT.       |
|     The default, NCORE=1 might be grossly inefficient on modern             |
|     multi-core architectures or massively parallel machines. Do your        |
|     own testing! More info at https://www.vasp.at/wiki/index.php/NCORE      |
|     Unfortunately you need to use the default for GW and RPA                |
|     calculations (for HF NCORE is supported but not extensively tested      |
|     yet).                                                                   |
|                                                                             |
 -----------------------------------------------------------------------------

 POTCAR:    PAW Si_GW 04May2012                   
   VRHFIN =Si: s2p2                                                                                 
   LEXCH  = PE                                                                                      
   EATOM  =   103.0669 eV,    7.5752 Ry                                                             
                                                                                                    
   TITEL  = PAW Si_GW 04May2012                                                                     
   LULTRA =        F    use ultrasoft PP ?                                                          
   IUNSCR =        1    unscreen: 0-lin 1-nonlin 2-no                                               
   RPACOR =    1.500    partial core radius                                                         
   POMASS =   28.085; ZVAL   =    4.000    mass and valenz                                          
   RCORE  =    1.900    outmost cutoff radius                                                       
   RWIGS  =    2.480; RWIGS  =    1.312    wigner-seitz radius (au A)                               
   ENMAX  =  245.345; ENMIN  =  184.009 eV                                                          
   ICORE  =        3    local potential                                                             
   LCOR   =        T    correct aug charges                                                         
   LPAW   =        T    paw PP                                                                      
   EAUG   =  412.952                                                                                
   DEXC   =    0.000                                                                                
   RMAX   =    1.950    core radius for proj-oper                                                   
   RAUG   =    1.300    factor for augmentation sphere                                              
   RDEP   =    1.993    radius for radial grids                                                     
   RDEPT  =    2.000    core radius for aug-charge                                                  
                                                                                                    
   Atomic configuration                                                                             
    7 entries                                                                                       
     n  l   j            E        occ.                                                              
     1  0  0.50     -1785.8828   2.0000                                                             
     2  0  0.50      -139.4969   2.0000                                                             
     2  1  1.50       -95.5546   6.0000                                                             
     3  0  0.50       -10.8127   2.0000                                                             
     3  1  0.50        -4.0811   2.0000                                                             
     3  2  1.50        -4.0817   0.0000                                                             
     4  3  2.50        -4.0817   0.0000                                                             
   Description                                                                                      
     l       E           TYP  RCUT    TYP  RCUT                                                     
     0    -10.8127223     23  1.900                                                                 
     0     95.2407820     23  1.900                                                                 
     1     -4.0811372     23  1.900                                                                 
     1     54.4233040     23  1.900                                                                 
     2     -8.1634956     23  1.900                                                                 
     2     81.6349560     23  1.900                                                                 
     3     27.2116520     23  1.900                                                                 
  local pseudopotential read in
  partial core-charges read in
  partial kinetic energy density read in
  kinetic energy density of atom read in
  atomic valenz-charges read in
  non local Contribution for L=           0  read in
    real space projection operators read in
  non local Contribution for L=           0  read in
    real space projection operators read in
  non local Contribution for L=           1  read in
    real space projection operators read in
  non local Contribution for L=           1  read in
    real space projection operators read in
  non local Contribution for L=           2  read in
    real space projection operators read in
  non local Contribution for L=           2  read in
    real space projection operators read in
    PAW grid and wavefunctions read in
 
   number of l-projection  operators is LMAX  =           6
   number of lm-projection operators is LMMAX =          18
 
 -----------------------------------------------------------------------------
|                                                                             |
|               ----> ADVICE to this user running VASP <----                  |
|                                                                             |
|     You have a (more or less) 'large supercell' and for larger cells it     |
|     might be more efficient to use real-space projection operators.         |
|     Therefore, try LREAL= Auto in the INCAR file.                           |
|     Mind: For very accurate calculation, you might also keep the            |
|     reciprocal projection scheme (i.e. LREAL=.FALSE.).                      |
|                                                                             |
 -----------------------------------------------------------------------------

  PAW Si_GW 04May2012                   :
 energy of atom  1       EATOM= -103.0669
 kinetic energy error for atom=    0.0012 (will be added to EATOM!!)
 
 
 POSCAR: cd:
  positions in direct lattice
  velocities in cartesian coordinates
 exchange correlation table for  LEXCH =        8
   RHO(1)=    0.500       N(1)  =     2000
   RHO(2)=  100.500       N(2)  =     4000
 


--------------------------------------------------------------------------------------------------------


 ion  position               nearest neighbor table
   1  0.284  0.284  0.147-   3 2.44   4 2.44   5 2.44  10 2.44  11 2.44  12 2.44  14 2.64
   2  0.018  0.018  0.945-  11 2.33  12 2.33  10 2.33  14 2.40
   3  0.501  0.992  0.006-  15 2.35  13 2.37   1 2.44  11 2.48  10 2.48
   4  0.992  0.501  0.006-  16 2.35  13 2.37   1 2.44  12 2.48  10 2.48
   5  0.501  0.501  0.006-  17 2.35  13 2.37   1 2.44  11 2.48  12 2.48
   6  0.993  0.993  0.500-  15 2.35  16 2.35  14 2.36  10 2.37
   7  0.513  0.993  0.500-  17 2.35  15 2.35  14 2.36  11 2.37
   8  0.993  0.513  0.500-  16 2.35  17 2.35  14 2.36  12 2.37
   9  0.494  0.494  0.519-  13 2.35  17 2.35  16 2.35  15 2.35
  10  0.109  0.109  0.126-   2 2.33   6 2.37   1 2.44   4 2.48   3 2.48
  11  0.655  0.109  0.126-   2 2.33   7 2.37   1 2.44   3 2.48   5 2.48
  12  0.109  0.655  0.126-   2 2.33   8 2.37   1 2.44   4 2.48   5 2.48
  13  0.618  0.618  0.147-   9 2.35   5 2.37   3 2.37   4 2.37
  14  0.145  0.145  0.565-   7 2.36   8 2.36   6 2.36   2 2.40   1 2.64
  15  0.622  0.121  0.635-   3 2.35   6 2.35   7 2.35   9 2.35
  16  0.121  0.622  0.635-   4 2.35   6 2.35   8 2.35   9 2.35
  17  0.622  0.622  0.635-   5 2.35   7 2.35   8 2.35   9 2.35
 

IMPORTANT INFORMATION: All symmetrisations will be switched off!
NOSYMM: (Re-)initialisation of all symmetry stuff for point group C_1.


----------------------------------------------------------------------------------------

                                     Primitive cell                                     

  volume of cell :     327.2832

  direct lattice vectors                    reciprocal lattice vectors
     5.469713400  5.469713400  0.000000000     0.091412468  0.091412468 -0.091412468
     0.000000000  5.469713400  5.469713400    -0.091412468  0.091412468  0.091412468
     5.469713400  0.000000000  5.469713400     0.091412468 -0.091412468  0.091412468

  length of vectors
     7.735342873  7.735342873  7.735342873     0.158331039  0.158331039  0.158331039

  position of ions in fractional coordinates (direct lattice)
     0.284471511  0.284471511  0.146585467
     0.018175813  0.018175813  0.945472562
     0.501011833  0.992088329  0.005888006
     0.992088329  0.501011833  0.005888006
     0.501011833  0.501011833  0.005888006
     0.993336241  0.993336241  0.500231136
     0.513096381  0.993336241  0.500231136
     0.993336241  0.513096381  0.500231136
     0.493671771  0.493671771  0.518984687
     0.109447435  0.109447435  0.125847277
     0.655257852  0.109447435  0.125847277
     0.109447435  0.655257852  0.125847277
     0.617716309  0.617716309  0.146851073
     0.144941613  0.144941613  0.565175161
     0.622059679  0.121370045  0.634510597
     0.121370045  0.622059679  0.634510597
     0.622059679  0.622059679  0.634510597

  ion indices of the primitive-cell ions
   primitive index   ion index
                 1           1
                 2           2
                 3           3
                 4           4
                 5           5
                 6           6
                 7           7
                 8           8
                 9           9
                10          10
                11          11
                12          12
                13          13
                14          14
                15          15
                16          16
                17          17

----------------------------------------------------------------------------------------

 
 
 KPOINTS: Automatic mesh                          

Automatic generation of k-mesh.
 Grid dimensions read from file:
 generate k-points for:    1    1    1

 Generating k-lattice:

  Cartesian coordinates                     Fractional coordinates (reciprocal lattice)
     0.091412468  0.091412468 -0.091412468     1.000000000  0.000000000  0.000000000
    -0.091412468  0.091412468  0.091412468     0.000000000  1.000000000 -0.000000000
     0.091412468 -0.091412468  0.091412468    -0.000000000 -0.000000000  1.000000000

  Length of vectors
     0.158331039  0.158331039  0.158331039

  Shift w.r.t. Gamma in fractional coordinates (k-lattice)
     0.000000000  0.000000000  0.000000000

 
 Subroutine IBZKPT returns following result:
 ===========================================
 
 Found      1 irreducible k-points:
 
 Following reciprocal coordinates:
            Coordinates               Weight
  0.000000  0.000000  0.000000      1.000000
 
 Following cartesian coordinates:
            Coordinates               Weight
  0.000000  0.000000  0.000000      1.000000
 
 WARNING: full set of k-points will be restricted to regular points only.

 
 Subroutine IBZKPT_HF returns following result:
 ==============================================
 
 Found      1 k-points in 1st BZ
 the following      1 k-points will be used (e.g. in the exchange kernel)
 Following reciprocal coordinates:   # in IRBZ
  0.000000  0.000000  0.000000    1.00000000   1 t-inv F
 -----------------------------------------------------------------------------
|                                                                             |
|           W    W    AA    RRRRR   N    N  II  N    N   GGGG   !!!           |
|           W    W   A  A   R    R  NN   N  II  NN   N  G    G  !!!           |
|           W    W  A    A  R    R  N N  N  II  N N  N  G       !!!           |
|           W WW W  AAAAAA  RRRRR   N  N N  II  N  N N  G  GGG   !            |
|           WW  WW  A    A  R   R   N   NN  II  N   NN  G    G                |
|           W    W  A    A  R    R  N    N  II  N    N   GGGG   !!!           |
|                                                                             |
|     The number of bands has been changed from the values supplied in        |
|     the INCAR file. This is a result of running the parallel version.       |
|     The orbitals not found in the WAVECAR file will be initialized with     |
|     random numbers, which is usually adequate. For correlated               |
|     calculations, however, you should redo the groundstate calculation.     |
|     I found NBANDS = 5961. Now, NBANDS = 6144.                              |
|                                                                             |
 -----------------------------------------------------------------------------



--------------------------------------------------------------------------------------------------------




 Dimension of arrays:
   k-points           NKPTS =      1   k-points in BZ     NKDIM =      1   number of bands    NBANDS=   6144
   number of dos      NEDOS =    301   number of ions     NIONS =     17
   non local maximal  LDIM  =      6   non local SUM 2l+1 LMDIM =     18
   total plane-waves  NPLWV =  64000
   max r-space proj   IRMAX =      1   max aug-charges    IRDMAX=   9797
   dimension x,y,z NGX =    40 NGY =   40 NGZ =   40
   dimension x,y,z NGXF=    80 NGYF=   80 NGZF=   80
   support grid    NGXF=    80 NGYF=   80 NGZF=   80
   ions per type =              17
   NGX,Y,Z   is equivalent  to a cutoff of   8.60,  8.60,  8.60 a.u.
   NGXF,Y,Z  is equivalent  to a cutoff of  17.19, 17.19, 17.19 a.u.

 SYSTEM =  unknown system                          
 POSCAR =  cd:                                     

 Startparameter for this run:
   NWRITE =      2    write-flag & timer
   PREC   = normal    normal or accurate (medium, high low for compatibility)
   ISTART =      1    job   : 0-new  1-cont  2-samecut
   ICHARG =      0    charge: 1-file 2-atom 10-const
   ISPIN  =      1    spin polarized calculation?
   LNONCOLLINEAR =      F non collinear calculations
   LSORBIT =      F    spin-orbit coupling
   INIWAV =      1    electr: 0-lowe 1-rand  2-diag
   LASPH  =      F    aspherical Exc in radial PAW
 Electronic Relaxation 1
   ENCUT  =  400.0 eV  29.40 Ry    5.42 a.u.  12.61 12.61 12.61*2*pi/ulx,y,z
   ENINI  =  400.0     initial cutoff
   ENAUG  =  413.0 eV  augmentation charge cutoff
   NELM   =      1;   NELMIN=  2; NELMDL=  0     # of ELM steps 
   EDIFF  = 0.1E-05   stopping-criterion for ELM
   LREAL  =      F    real-space projection
   NLSPLINE    = F    spline interpolate recip. space projectors
   LCOMPAT=      F    compatible to vasp.4.4
   GGA_COMPAT  = T    GGA compatible to vasp.4.4-vasp.4.6
   LMAXPAW     = -100 max onsite density
   LMAXMIX     =    2 max onsite mixed and CHGCAR
   VOSKOWN=      0    Vosko Wilk Nusair interpolation
   ROPT   =    0.00000
 Ionic relaxation
   EDIFFG = 0.1E-04   stopping-criterion for IOM
   NSW    =      0    number of steps for IOM
   NBLOCK =      1;   KBLOCK =      1    inner block; outer block 
   IBRION =     -1    ionic relax: 0-MD 1-quasi-New 2-CG
   NFREE  =      0    steps in history (QN), initial steepest desc. (CG)
   ISIF   =      0    stress and relaxation
   IWAVPR =     10    prediction:  0-non 1-charg 2-wave 3-comb
   ISYM   =     -1    0-nonsym 1-usesym 2-fastsym
   LCORR  =      T    Harris-Foulkes like correction to forces

   POTIM  = 0.5000    time-step for ionic-motion
   TEIN   =    0.0    initial temperature
   TEBEG  =    0.0;   TEEND  =   0.0 temperature during run
   SMASS  =  -3.00    Nose mass-parameter (am)
   estimated Nose-frequenzy (Omega)   =  0.10E-29 period in steps = 0.13E+47 mass=  -0.137E-26a.u.
   SCALEE = 1.0000    scale energy and forces
   NPACO  =    256;   APACO  = 10.0  distance and # of slots for P.C.
   PSTRESS=    0.0 pullay stress

  Mass of Ions in am
   POMASS =  28.09
  Ionic Valenz
   ZVAL   =   4.00
  Atomic Wigner-Seitz radii
   RWIGS  =  -1.00
  virtual crystal weights 
   VCA    =   1.00
   NELECT =      68.0000    total number of electrons
   NUPDOWN=      -1.0000    fix difference up-down

 DOS related values:
   EMIN   =  10.00;   EMAX   =-10.00  energy-range for DOS
   EFERMI =   0.00
   ISMEAR =     1;   SIGMA  =   0.00  broadening in eV -4-tet -1-fermi 0-gaus

 Electronic relaxation 2 (details)
   IALGO  =      4    algorithm
   LDIAG  =      T    sub-space diagonalisation (order eigenvalues)
   LSUBROT=      F    optimize rotation matrix (better conditioning)
   TURBO    =      0    0=normal 1=particle mesh
   IRESTART =      0    0=no restart 2=restart with 2 vectors
   NREBOOT  =      0    no. of reboots
   NMIN     =      0    reboot dimension
   EREF     =   0.00    reference energy to select bands
   IMIX   =      1    mixing-type and parameters
     AMIX     =   0.40;   BMIX     =  1.00
     AMIX_MAG =   1.60;   BMIX_MAG =  1.00
     AMIN     =   0.10
     WC   =   100.;   INIMIX=   1;  MIXPRE=   1;  MAXMIX= -45

 Intra band minimization:
   WEIMIN = 0.0000     energy-eigenvalue tresh-hold
   EBREAK =  0.41E-10  absolut break condition
   DEPER  =   0.30     relativ break condition  

   TIME   =   0.40     timestep for ELM

  volume/ion in A,a.u.               =      19.25       129.92
  Fermi-wavevector in a.u.,A,eV,Ry     =   0.969624  1.832323 12.791792  0.940170
  Thomas-Fermi vector in A             =   2.099692
 
 Write flags
   LWAVE        =      T    write WAVECAR
   LDOWNSAMPLE  =      F    k-point downsampling of WAVECAR
   LCHARG       =      T    write CHGCAR
   LVTOT        =      F    write LOCPOT, total local potential
   LVHAR        =      F    write LOCPOT, Hartree potential only
   LELF         =      F    write electronic localiz. function (ELF)
   LORBIT       =      0    0 simple, 1 ext, 2 COOP (PROOUT), +10 PAW based schemes


 Dipole corrections
   LMONO  =      F    monopole corrections only (constant potential shift)
   LDIPOL =      F    correct potential (dipole corrections)
   IDIPOL =      0    1-x, 2-y, 3-z, 4-all directions 
   EPSILON=  1.0000000 bulk dielectric constant

 Exchange correlation treatment:
   GGA     =    --    GGA type
   LEXCH   =     8    internal setting for exchange type
   LIBXC   =     F    Libxc                    
   VOSKOWN =     0    Vosko Wilk Nusair interpolation
   EXXOEP  =     0    0=HF, 1=EXX-LHF (local Hartree Fock) 2=EXX OEP
   LHFCALC =     T    Hartree Fock is set to
   LSYMGRAD=     F    symmetrize gradient (conserves proper symmetry)
   PRECFOCK=normal    Normal, Fast or Accurate (Low or Medium for compatibility)
   LRHFCALC=     F    long range Hartree Fock
   LRSCOR  =     F    long range correlation only (use DFT for short range part)
   LTHOMAS =     F    Thomas Fermi screening in HF
   LMODELHF=     F    short range full HF, long range fraction AEXX
   LFOCKACE=     T    use Adeptively-Compressed-Exchange operator
   ENCUT4O =  -1.0   cutoff for four orbital integrals eV
   LMAXFOCK=     4    L truncation for augmentation on plane wave grid
   LMAXFOCKAE=  -1    L truncation for all-electron charge restoration on plane wave grid
   NMAXFOCKAE=   1    number of basis functions for all-electron charge restoration
   LFOCKAEDFT=     F  apply the AE augmentation even for DFT
   NKREDX  =     1    reduce k-point grid by
   NKREDY  =     1    reduce k-point grid by
   NKREDZ  =     1    reduce k-point grid by
   SHIFTRED=     F    shift reduced grid of Gamma
   HFKIDENT=     F    idential grid for each k-point
   ODDONLY =     F    use only odd q-grid points
   EVENONLY=     F    use only even q-grid points
   HFALPHA =   -1.0000 decay constant for conv. correction
   MCALPHA =    0.0000 extent of test-charge in conv. correction in multipole expansion
   AEXX    =    1.0000 exact exchange contribution
   HFSCREEN=    0.0000 screening length (either q_TF or 0.3 A-1)
   HFSCREENC=   0.0000 screening length for correlation (either q_TF or 0.3 A-1)
   HFRCUT  =    0.0000 spherical cutoff for potential kernel
   ALDAX   =    0.0000 LDA exchange part
   AGGAX   =    0.0000 GGA exchange part
   ALDAC   =    0.0000 LDA correlation
   AGGAC   =    0.0000 GGA correlation
   ENCUTFOCK=  -1.0 apply spherical cutoff to Coloumb kernel
   NBANDSGWLOW=     1    first orbital included in HF term
   NBLOCK_FOCK=    64    blocking factor in FOCK_ACC

 Linear response parameters
   LEPSILON=     F    determine dielectric tensor
   LRPA    =     F    only Hartree local field effects (RPA)
   LNABLA  =     F    use nabla operator in PAW spheres
   LVEL    =     F    velocity operator in full k-point grid
   CSHIFT  =0.1000    complex shift for real part using Kramers Kronig
   OMEGAMAX=  -1.0    maximum frequency
   DEG_THRESHOLD= 0.2000000E-02 threshold for treating states as degnerate
   RTIME   =   -0.100 relaxation time in fs
  (WPLASMAI=    0.000 imaginary part of plasma frequency in eV, 0.658/RTIME)
   DFIELD  = 0.0000000 0.0000000 0.0000000 field for delta impulse in time
 
  Optional k-point grid parameters
   LKPOINTS_OPT  =     F    use optional k-point grid
   KPOINTS_OPT_MODE=     1    mode for optional k-point grid
 
 Orbital magnetization related:
   ORBITALMAG=     F  switch on orbital magnetization
   LCHIMAG   =     F  perturbation theory with respect to B field
   DQ        =  0.001000  dq finite difference perturbation B field
   LLRAUG    =     F  two centre corrections for induced B field



--------------------------------------------------------------------------------------------------------


 Static calculation
 charge density and potential will be updated during run
 non-spin polarized calculation
 Subrot: only subspace diagonalization (rotation)
    band-by band algorithm
 perform sub-space diagonalisation
    before iterative eigenvector-optimisation
 Kerker-like  mixing scheme
 using additional bands         6110
 reciprocal scheme for non local part
 use partial core corrections
 calculate Harris-corrections to forces 
   (improved forces if not selfconsistent)
 use gradient corrections 
 use of overlap-Matrix (Vanderbilt PP)
 Methfessel and Paxton  Order N= 1 SIGMA  =   0.00


--------------------------------------------------------------------------------------------------------


  energy-cutoff  :      400.00
  volume of cell :      327.28
      direct lattice vectors                 reciprocal lattice vectors
     5.469713400  5.469713400  0.000000000     0.091412468  0.091412468 -0.091412468
     0.000000000  5.469713400  5.469713400    -0.091412468  0.091412468  0.091412468
     5.469713400  0.000000000  5.469713400     0.091412468 -0.091412468  0.091412468

  length of vectors
     7.735342873  7.735342873  7.735342873     0.158331039  0.158331039  0.158331039


 
 old parameters found on file WAVECAR:
  energy-cutoff  :      400.00
  volume of cell :      327.28
      direct lattice vectors                 reciprocal lattice vectors
     5.469713400  5.469713400  0.000000000     0.091412468  0.091412468 -0.091412468
     0.000000000  5.469713400  5.469713400    -0.091412468  0.091412468  0.091412468
     5.469713400  0.000000000  5.469713400     0.091412468 -0.091412468  0.091412468

  length of vectors

 
 k-points in units of 2pi/SCALE and weight: Automatic mesh                          
   0.00000000  0.00000000  0.00000000       1.000
 
 k-points in reciprocal lattice and weights: Automatic mesh                          
   0.00000000  0.00000000  0.00000000       1.000
 
 position of ions in fractional coordinates (direct lattice) 
   0.28447151  0.28447151  0.14658547
   0.01817581  0.01817581  0.94547256
   0.50101183  0.99208833  0.00588801
   0.99208833  0.50101183  0.00588801
   0.50101183  0.50101183  0.00588801
   0.99333624  0.99333624  0.50023114
   0.51309638  0.99333624  0.50023114
   0.99333624  0.51309638  0.50023114
   0.49367177  0.49367177  0.51898469
   0.10944744  0.10944744  0.12584728
   0.65525785  0.10944744  0.12584728
   0.10944744  0.65525785  0.12584728
   0.61771631  0.61771631  0.14685107
   0.14494161  0.14494161  0.56517516
   0.62205968  0.12137004  0.63451060
   0.12137004  0.62205968  0.63451060
   0.62205968  0.62205968  0.63451060
 
 position of ions in cartesian coordinates  (Angst):
   2.35775813  3.11195527  2.35775813
   5.27088043  0.19883297  5.27088043
   2.77259684  8.16682996  5.45864453
   5.45864453  8.16682996  2.77259684
   2.77259684  5.48078227  2.77259684
   8.16938550 10.86652910  8.16938550
   5.54261110  8.23975470  8.16938550
   8.16938550  8.23975470  5.54261110
   5.53894060  5.40048620  5.53894060
   1.28699464  1.19729221  1.28699464
   4.27242119  4.18271876  1.28699464
   1.28699464  4.18271876  4.27242119
   4.18196446  6.75746234  4.18196446
   3.88413524  1.58557816  3.88413524
   6.87307928  4.06634752  4.13445048
   4.13445048  4.06634752  6.87307928
   6.87307928  6.80497632  6.87307928
 


--------------------------------------------------------------------------------------------------------


 use serial FFT for orbitals x direction half grid
 k-point   1 :   0.0000 0.0000 0.0000  plane waves:    2981

 maximum and minimum number of plane-waves per node :      2981     2981

 maximum number of plane-waves:      2981
 maximum index in each direction: 
   IXMAX=   12   IYMAX=   12   IZMAX=   12
   IXMIN=    0   IYMIN=  -10   IZMIN=  -10


 serial   3D FFT for wavefunctions
 parallel 3D FFT for charge:
    minimum data exchange during FFTs selected (reduces bandwidth)

 
 Radii for the augmentation spheres in the non-local exchange
 for species   1 augmentation radius   1.405 (default was   1.124)
       energy cutoff for augmentation   1600.0
 Maximum index for augmentation-charges in exchange         2316
  SETUP_FOCK is finished

 total amount of memory used by VASP MPI-rank0    44268. kBytes
=======================================================================

   base      :      30000. kBytes
   nonl-proj :       1277. kBytes
   fftplans  :        558. kBytes
   grid      :       2897. kBytes
   one-center:        132. kBytes
   HF        :         64. kBytes
   nonlr-proj:       8505. kBytes
   wavefun   :        835. kBytes
 
     INWAV:  cpu time      2.7819: real time      2.7903
 charge density for first step will be calculated from the start-wavefunctions


--------------------------------------------------------------------------------------------------------


 Maximum index for augmentation-charges          494 (set IRDMAX)


--------------------------------------------------------------------------------------------------------


 initial charge from wavefunction
    FEWALD:  cpu time      0.0073: real time      0.0073


--------------------------------------- Iteration      1(   1)  ---------------------------------------


    POTLOK:  cpu time      0.2122: real time      0.2134
    SETDIJ:  cpu time      0.0141: real time      0.0143
    EDDIAG:  cpu time    226.5308: real time    227.1398
       DOS:  cpu time      0.0034: real time      0.0040
    --------------------------------------------
      LOOP:  cpu time    226.7605: real time    227.3715

 eigenvalue-minimisations  :     0
 total energy-change (2. order) :-0.1493712E+03  ( 0.0000000E+00)
 number of electron      68.0000004 magnetization 
 augmentation part       -3.6927975 magnetization 

 Free energy of the ion-electron system (eV)
  ---------------------------------------------------
  alpha Z        PSCENC =        53.80049087
  Ewald energy   TEWEN  =     -1956.80383154
  -Hartree energ DENC   =      -153.22031503
  -exchange      EXHF   =       512.89279149
  -V(xc)+E(xc)   XCENC  =         0.00000000
  PAW double counting   =      2280.41962357    -2284.41749886
  entropy T*S    EENTRO =         0.00000000
  eigenvalues    EBANDS =      -201.24105711
  atomic energy  EATOM  =      1599.19861851
  Solvation  Ediel_sol  =         0.00000000
  ---------------------------------------------------
  free energy    TOTEN  =      -149.37117809 eV

  energy without entropy =     -149.37117809  energy(sigma->0) =     -149.37117809
  exchange ACFDT corr.  =         0.00000000  see jH, gK, PRB 81, 115126


--------------------------------------------------------------------------------------------------------




 average (electrostatic) potential at core
  the test charge radii are     1.1243
  (the norm of the test charge is              1.0000)
       1 -50.0115       2 -49.6767       3 -49.9631       4 -49.9630       5 -49.9631
       6 -49.6826       7 -49.6826       8 -49.6828       9 -49.5899      10 -50.0807
      11 -50.0808      12 -50.0808      13 -49.4803      14 -49.6298      15 -49.6078
      16 -49.6077      17 -49.6077
 
 
 
 E-fermi :   4.1211     XC(G=0):   0.0000     alpha+bet :-12.0749

 Fermi energy:         4.1211178564

 k-point     1 :       0.0000    0.0000    0.0000
  band No.  band energies     occupation 
      1     -13.5018      2.00000
      2     -10.2406      2.00000
      3      -9.8549      2.00000
      4      -9.8549      2.00000
      5      -9.6980      2.00000
      6      -8.7509      2.00000
      7      -7.2718      2.00000
      8      -7.2717      2.00000
      9      -7.2446      2.00000
     10      -6.9876      2.00000
     11      -6.9876      2.00000
     12      -6.5713      2.00000
     13      -5.7104      2.00000
     14      -5.4771      2.00000
     15      -5.4770      2.00000
     16      -1.1620      2.00000
     17      -1.1620      2.00000
     18      -1.1532      2.00000
     19      -0.2715      2.00000
     20      -0.2715      2.00000
     21      -0.1017      2.00000
     22       0.6463      2.00000
     23       1.0798      2.00000
     24       1.0798      2.00000
     25       1.3868      2.00000
     26       1.3868      2.00000
     27       1.6206      2.00000
     28       1.6206      2.00000
     29       1.6764      2.00000
     30       1.8410      2.00000
     31       2.7890      2.00000
     32       2.7890      2.00000
     33       2.9234      2.00000
     34       3.5618      2.00000
     35      10.8530      0.00000
     36      10.8530      0.00000
     37      11.2007      0.00000
     38      11.2007      0.00000
     39      11.9144      0.00000
     40      11.9144      0.00000
     41      11.9319      0.00000
     42      12.0801      0.00000
     43      12.3507      0.00000
     44      12.3508      0.00000
     45      12.8725      0.00000
     46      13.6270      0.00000
     47      13.8657      0.00000
     48      13.8657      0.00000
     49      14.0688      0.00000
     50      14.0688      0.00000
     51      14.4110      0.00000
     52      14.4149      0.00000
     53      14.4149      0.00000
     54      14.5026      0.00000
     55      16.0033      0.00000
     56      17.1774      0.00000
     57      18.3428      0.00000
     58      18.3428      0.00000
     59      18.8289      0.00000
     60      18.9567      0.00000
     61      18.9568      0.00000
     62      20.4569      0.00000
     63      20.4569      0.00000
     64      20.9150      0.00000
     65      21.4093      0.00000
     66      21.8063      0.00000
     67      21.8063      0.00000
     68      21.8609      0.00000
     69      21.8609      0.00000
     70      22.3030      0.00000
     71      22.3930      0.00000
     72      22.5066      0.00000
     73      22.5066      0.00000
     74      22.5198      0.00000
     75      22.5198      0.00000
     76      22.6984      0.00000
     77      22.6984      0.00000
     78      22.7013      0.00000
     79      22.8450      0.00000
     80      22.8888      0.00000
     81      22.8888      0.00000
     82      22.9624      0.00000
     83      22.9625      0.00000
     84      22.9741      0.00000
     85      23.0868      0.00000
     86      23.1379      0.00000
     87      23.1379      0.00000
     88      23.2622      0.00000
     89      23.3734      0.00000
     90      23.3734      0.00000
     91      23.5272      0.00000
     92      23.5272      0.00000
     93      23.5972      0.00000
     94      23.5972      0.00000
     95      23.6207      0.00000
     96      23.6543      0.00000
     97      24.2214      0.00000
     98      24.2214      0.00000
     99      24.4427      0.00000
    100      24.6376      0.00000
    101      24.6376      0.00000
    102      24.8509      0.00000
    103      25.2270      0.00000
    104      25.2543      0.00000
    105      25.4008      0.00000
    106      25.4008      0.00000
    107      25.4599      0.00000
    108      25.5545      0.00000
    109      25.6783      0.00000
    110      25.6783      0.00000
    111      25.8939      0.00000
    112      25.8939      0.00000
    113      26.0953      0.00000
    114      29.2390      0.00000
    115      29.3444      0.00000
    116      29.3444      0.00000
    117      29.7257      0.00000
    118      30.4637      0.00000
    119      30.4637      0.00000
    120      31.0611      0.00000
    121      31.1098      0.00000
    122      31.1098      0.00000
    123      31.1826      0.00000
    124      31.1827      0.00000
    125      31.5447      0.00000
    126      31.5495      0.00000
    127      31.5495      0.00000
    128      31.7179      0.00000
    129      31.8647      0.00000
    130      31.8647      0.00000
    131      32.1494      0.00000
    132      32.1494      0.00000
    133      32.2673      0.00000
    134      32.4449      0.00000
    135      32.5083      0.00000
    136      32.5594      0.00000
    137      32.5594      0.00000
    138      32.5672      0.00000
    139      32.6686      0.00000
    140      32.6686      0.00000
    141      32.7866      0.00000
    142      33.0125      0.00000
    143      33.0125      0.00000
    144      33.1627      0.00000
    145      33.6242      0.00000
    146      33.6462      0.00000
    147      33.6462      0.00000
    148      34.0812      0.00000
    149      34.0812      0.00000
    150      34.1065      0.00000
    151      34.1638      0.00000
    152      34.2398      0.00000
    153      34.2398      0.00000
    154      34.8906      0.00000
    155      34.8907      0.00000
    156      34.9621      0.00000
    157      34.9621      0.00000
    158      35.0146      0.00000
    159      35.1031      0.00000
    160      35.1031      0.00000
    161      35.4866      0.00000
    162      36.1014      0.00000
    163      36.4665      0.00000
    164      36.4665      0.00000
    165      36.9310      0.00000
    166      37.3478      0.00000
    167      37.3478      0.00000
    168      37.5436      0.00000
    169      38.1879      0.00000
    170      38.1879      0.00000
    171      38.4202      0.00000
    172      38.4279      0.00000
    173      38.4279      0.00000
    174      38.5546      0.00000
    175      38.5546      0.00000
    176      39.0294      0.00000
    177      39.0294      0.00000
    178      39.2456      0.00000
    179      39.3102      0.00000
    180      39.3102      0.00000
    181      39.3671      0.00000
    182      39.5037      0.00000
    183      39.5037      0.00000
    184      39.6628      0.00000
    185      39.8145      0.00000
    186      39.8145      0.00000
    187      39.9817      0.00000
    188      40.0096      0.00000
    189      40.1258      0.00000
    190      40.1804      0.00000
    191      40.1804      0.00000
    192      40.5330      0.00000
    193      40.7268      0.00000
    194      40.7268      0.00000
    195      41.4302      0.00000
    196      41.4704      0.00000
    197      41.4704      0.00000
    198      41.5605      0.00000
    199      41.5606      0.00000
    200      41.9443      0.00000
    201      42.0384      0.00000
    202      42.0385      0.00000
    203      42.5876      0.00000
    204      42.6301      0.00000
    205      42.6301      0.00000
    206      43.0438      0.00000
    207      43.0438      0.00000
    208      43.4371      0.00000
    209      43.4371      0.00000
    210      43.5192      0.00000
    211      43.8653      0.00000
    212      43.8653      0.00000
    213      43.8993      0.00000
    214      44.2979      0.00000
    215      44.4436      0.00000
    216      44.4437      0.00000
    217      44.7654      0.00000
    218      44.9901      0.00000
    219      44.9901      0.00000
    220      45.1787      0.00000
    221      45.2230      0.00000
    222      45.2230      0.00000
    223      45.2608      0.00000
    224      45.3615      0.00000
    225      45.3616      0.00000
    226      45.6201      0.00000
    227      45.7492      0.00000
    228      45.7492      0.00000
    229      45.8380      0.00000
    230      45.8909      0.00000
    231      45.8909      0.00000
    232      46.2005      0.00000
    233      46.2005      0.00000
    234      46.2587      0.00000
    235      46.4136      0.00000
    236      46.5970      0.00000
    237      46.5970      0.00000
    238      46.7915      0.00000
    239      46.8056      0.00000
    240      46.8164      0.00000
    241      46.8164      0.00000
    242      46.9944      0.00000
    243      47.4625      0.00000
    244      47.4625      0.00000
    245      47.8867      0.00000
    246      47.9561      0.00000
    247      47.9561      0.00000
    248      48.3424      0.00000
    249      48.3424      0.00000
    250      48.5733      0.00000
    251      48.6569      0.00000
    252      48.9651      0.00000
    253      49.0763      0.00000
    254      49.0763      0.00000
    255      49.1021      0.00000
    256      49.1021      0.00000
    257      49.1107      0.00000
    258      49.1247      0.00000
    259      49.2493      0.00000
    260      49.2837      0.00000
    261      49.2838      0.00000
    262      49.6351      0.00000
    263      49.8119      0.00000
    264      49.8119      0.00000
    265      50.7868      0.00000
    266      50.7869      0.00000
    267      50.8141      0.00000
    268      50.9456      0.00000
    269      51.0726      0.00000
    270      51.0726      0.00000
    271      51.3357      0.00000
    272      51.7143      0.00000
    273      51.7143      0.00000
    274      51.8633      0.00000
    275      51.8633      0.00000
    276      52.2816      0.00000
    277      52.2816      0.00000
    278      52.5668      0.00000
    279      52.5826      0.00000
    280      52.5826      0.00000
    281      52.6738      0.00000
    282      53.0074      0.00000
    283      53.0074      0.00000
    284      53.0877      0.00000
    285      53.2261      0.00000
    286      53.2262      0.00000
    287      53.2900      0.00000
    288      53.3719      0.00000
    289      53.3719      0.00000
    290      53.4097      0.00000
    291      53.4097      0.00000
    292      53.4552      0.00000
    293      53.5540      0.00000
    294      53.5540      0.00000
    295      53.6235      0.00000
    296      53.9913      0.00000
    297      54.0314      0.00000
    298      54.0314      0.00000
    299      54.2401      0.00000
    300      54.4426      0.00000
    301      54.4426      0.00000
    302      55.1070      0.00000
    303      55.1070      0.00000
    304      55.2203      0.00000
    305      55.7798      0.00000
    306      55.8168      0.00000
    307      55.8168      0.00000
    308      55.8809      0.00000
    309      55.8809      0.00000
    310      55.9390      0.00000
    311      56.0064      0.00000
    312      56.0064      0.00000
    313      56.1986      0.00000
    314      56.5174      0.00000
    315      56.5174      0.00000
    316      56.6471      0.00000
    317      56.8594      0.00000
    318      57.2413      0.00000
    319      57.2413      0.00000
    320      57.2917      0.00000
    321      57.2917      0.00000
    322      57.6611      0.00000
    323      57.7616      0.00000
    324      57.7616      0.00000
    325      57.9938      0.00000
    326      58.0228      0.00000
    327      58.2604      0.00000
    328      58.2604      0.00000
    329      58.2639      0.00000
    330      58.4754      0.00000
    331      58.5413      0.00000
    332      58.5413      0.00000
    333      58.8835      0.00000
    334      58.8835      0.00000
    335      58.9219      0.00000
    336      59.2178      0.00000
    337      60.2314      0.00000
    338      60.2315      0.00000
    339      60.4431      0.00000
    340      60.5883      0.00000
    341      60.5883      0.00000
    342      61.0410      0.00000
    343      61.0918      0.00000
    344      61.0972      0.00000
    345      61.0973      0.00000
    346      61.2521      0.00000
    347      61.2521      0.00000
    348      61.5802      0.00000
    349      61.6750      0.00000
    350      61.6750      0.00000
    351      61.9184      0.00000
    352      61.9184      0.00000
    353      61.9257      0.00000
    354      62.1358      0.00000
    355      62.1359      0.00000
    356      62.2038      0.00000
    357      62.2123      0.00000
    358      62.2123      0.00000
    359      62.6682      0.00000
    360      62.7405      0.00000
    361      62.7405      0.00000
    362      63.0741      0.00000
    363      63.0741      0.00000
    364      63.2037      0.00000
    365      63.2539      0.00000
    366      63.3657      0.00000
    367      63.3657      0.00000
    368      63.4220      0.00000
    369      63.4220      0.00000
    370      63.6572      0.00000
    371      63.7970      0.00000
    372      63.7970      0.00000
    373      63.9744      0.00000
    374      64.3064      0.00000
    375      64.3716      0.00000
    376      64.3717      0.00000
    377      64.3757      0.00000
    378      64.6461      0.00000
    379      65.0021      0.00000
    380      65.0575      0.00000
    381      65.0576      0.00000
    382      65.0829      0.00000
    383      65.3228      0.00000
    384      65.3228      0.00000
    385      65.5308      0.00000
    386      65.5308      0.00000
    387      65.5608      0.00000
    388      65.6869      0.00000
    389      65.6870      0.00000
    390      65.7562      0.00000
    391      66.1193      0.00000
    392      66.1193      0.00000
    393      66.2288      0.00000
    394      66.2288      0.00000
    395      66.2921      0.00000
    396      66.4846      0.00000
    397      66.4846      0.00000
    398      66.5624      0.00000
    399      66.6431      0.00000
    400      66.6431      0.00000
    401      67.0070      0.00000
    402      67.2341      0.00000
    403      67.3629      0.00000
    404      67.6999      0.00000
    405      67.6999      0.00000
    406      67.8821      0.00000
    407      67.9643      0.00000
    408      67.9643      0.00000
    409      68.1529      0.00000
    410      68.5437      0.00000
    411      68.6543      0.00000
    412      68.6543      0.00000
    413      69.0849      0.00000
    414      69.0849      0.00000
    415      69.1318      0.00000
    416      69.2942      0.00000
    417      69.2942      0.00000
    418      69.5624      0.00000
    419      69.5624      0.00000
    420      69.6061      0.00000
    421      69.8421      0.00000
    422      69.8421      0.00000
    423      70.0331      0.00000
    424      70.0331      0.00000
    425      70.1955      0.00000
    426      70.2623      0.00000
    427      70.3104      0.00000
    428      70.3181      0.00000
    429      70.4282      0.00000
    430      70.4282      0.00000
    431      70.5482      0.00000
    432      70.5482      0.00000
    433      70.6050      0.00000
    434      70.9096      0.00000
    435      70.9096      0.00000
    436      70.9436      0.00000
    437      70.9436      0.00000
    438      70.9922      0.00000
    439      71.1360      0.00000
    440      71.4844      0.00000
    441      71.4845      0.00000
    442      71.6723      0.00000
    443      71.6723      0.00000
    444      71.6846      0.00000
    445      71.8311      0.00000
    446      71.8754      0.00000
    447      71.8754      0.00000
    448      72.1652      0.00000
    449      72.2244      0.00000
    450      72.2245      0.00000
    451      72.5366      0.00000
    452      72.5366      0.00000
    453      72.6083      0.00000
    454      72.6084      0.00000
    455      72.7794      0.00000
    456      72.7794      0.00000
    457      72.7952      0.00000
    458      72.9831      0.00000
    459      73.0086      0.00000
    460      73.0087      0.00000
    461      73.0388      0.00000
    462      73.3935      0.00000
    463      73.3936      0.00000
    464      73.4445      0.00000
    465      73.5125      0.00000
    466      73.5126      0.00000
    467      73.5836      0.00000
    468      73.5854      0.00000
    469      73.7170      0.00000
    470      73.7171      0.00000
    471      73.9431      0.00000
    472      73.9431      0.00000
    473      73.9632      0.00000
    474      73.9753      0.00000
    475      74.0657      0.00000
    476      74.0657      0.00000
    477      74.1878      0.00000
    478      74.2777      0.00000
    479      74.5615      0.00000
    480      74.6213      0.00000
    481      74.6213      0.00000
    482      74.8136      0.00000
    483      74.8136      0.00000
    484      75.2191      0.00000
    485      75.2192      0.00000
    486      75.4052      0.00000
    487      75.4053      0.00000
    488      75.4478      0.00000
    489      75.8370      0.00000
    490      75.8514      0.00000
    491      75.8514      0.00000
    492      75.8978      0.00000
    493      75.9976      0.00000
    494      76.1980      0.00000
    495      76.1980      0.00000
    496      76.5786      0.00000
    497      76.5786      0.00000
    498      76.5954      0.00000
    499      76.7760      0.00000
    500      76.7761      0.00000
    501      76.9914      0.00000
    502      77.2225      0.00000
    503      77.2225      0.00000
    504      77.3736      0.00000
    505      77.5165      0.00000
    506      77.5165      0.00000
    507      77.5371      0.00000
    508      77.6432      0.00000
    509      77.9007      0.00000
    510      77.9007      0.00000
    511      77.9388      0.00000
    512      78.0364      0.00000
    513      78.0365      0.00000
    514      78.0487      0.00000
    515      78.4046      0.00000
    516      78.4046      0.00000
    517      78.4507      0.00000
    518      78.6277      0.00000
    519      78.7618      0.00000
    520      78.7619      0.00000
    521      79.1960      0.00000
    522      79.2640      0.00000
    523      79.3027      0.00000
    524      79.3027      0.00000
    525      79.4031      0.00000
    526      79.4032      0.00000
    527      79.8178      0.00000
    528      79.8179      0.00000
    529      79.9508      0.00000
    530      80.2697      0.00000
    531      80.2697      0.00000
    532      80.8366      0.00000
    533      81.0907      0.00000
    534      81.0907      0.00000
    535      81.3004      0.00000
    536      81.3005      0.00000
    537      81.3231      0.00000
    538      81.7179      0.00000
    539      81.7249      0.00000
    540      81.7511      0.00000
    541      81.7512      0.00000
    542      81.8307      0.00000
    543      81.8307      0.00000
    544      81.9801      0.00000
    545      82.0391      0.00000
    546      82.1856      0.00000
    547      82.3406      0.00000
    548      82.3407      0.00000
    549      82.4646      0.00000
    550      82.5143      0.00000
    551      82.5144      0.00000
    552      82.7101      0.00000
    553      82.9928      0.00000
    554      82.9928      0.00000
    555      83.2379      0.00000
    556      83.2956      0.00000
    557      83.2958      0.00000
    558      83.5055      0.00000
    559      83.6758      0.00000
    560      83.6758      0.00000
    561      83.9162      0.00000
    562      83.9162      0.00000
    563      84.0693      0.00000
    564      84.0693      0.00000
    565      84.1726      0.00000
    566      84.1843      0.00000
    567      84.3468      0.00000
    568      84.3468      0.00000
    569      84.4114      0.00000
    570      84.4115      0.00000
    571      84.4600      0.00000
    572      84.4600      0.00000
    573      84.4738      0.00000
    574      84.6322      0.00000
    575      84.7871      0.00000
    576      84.9517      0.00000
    577      85.0650      0.00000
    578      85.0650      0.00000
    579      85.0743      0.00000
    580      85.1278      0.00000
    581      85.2144      0.00000
    582      85.2144      0.00000
    583      85.3639      0.00000
    584      85.3639      0.00000
    585      85.6926      0.00000
    586      85.7482      0.00000
    587      85.7483      0.00000
    588      85.8137      0.00000
    589      85.8138      0.00000
    590      85.9718      0.00000
    591      85.9719      0.00000
    592      86.0526      0.00000
    593      86.1957      0.00000
    594      86.3349      0.00000
    595      86.3873      0.00000
    596      86.3874      0.00000
    597      86.5652      0.00000
    598      86.5655      0.00000
    599      87.0466      0.00000
    600      87.0529      0.00000
    601      87.0531      0.00000
    602      87.2386      0.00000
    603      87.2386      0.00000
    604      87.4353      0.00000
    605      87.4357      0.00000
    606      87.8757      0.00000
    607      87.8758      0.00000
    608      87.9542      0.00000
    609      88.0693      0.00000
    610      88.1204      0.00000
    611      88.3235      0.00000
    612      88.3640      0.00000
    613      88.3641      0.00000
    614      88.5033      0.00000
    615      88.5034      0.00000
    616      88.5202      0.00000
    617      88.7916      0.00000
    618      88.8382      0.00000
    619      88.8383      0.00000
    620      88.9734      0.00000
    621      89.1539      0.00000
    622      89.1539      0.00000
    623      89.2785      0.00000
    624      89.4176      0.00000
    625      89.4176      0.00000
    626      89.5853      0.00000
    627      89.5853      0.00000
    628      89.7762      0.00000
    629      90.0336      0.00000
    630      90.0337      0.00000
    631      90.1593      0.00000
    632      90.2744      0.00000
    633      90.2744      0.00000
    634      90.6453      0.00000
    635      90.8622      0.00000
    636      90.8624      0.00000
    637      90.9631      0.00000
    638      90.9632      0.00000
    639      91.0855      0.00000
    640      91.0857      0.00000
    641      91.2073      0.00000
    642      91.2185      0.00000
    643      91.3347      0.00000
    644      91.3348      0.00000
    645      91.4661      0.00000
    646      91.4661      0.00000
    647      91.6241      0.00000
    648      91.6399      0.00000
    649      91.9375      0.00000
    650      91.9895      0.00000
    651      91.9896      0.00000
    652      92.0845      0.00000
    653      92.1995      0.00000
    654      92.1996      0.00000
    655      92.2642      0.00000
    656      92.2643      0.00000
    657      92.4480      0.00000
    658      92.6662      0.00000
    659      92.8445      0.00000
    660      93.0384      0.00000
    661      93.0385      0.00000
    662      93.2686      0.00000
    663      93.2686      0.00000
    664      93.4376      0.00000
    665      93.4847      0.00000
    666      93.8804      0.00000
    667      93.8805      0.00000
    668      94.0461      0.00000
    669      94.0785      0.00000
    670      94.1027      0.00000
    671      94.1027      0.00000
    672      94.1707      0.00000
    673      94.1707      0.00000
    674      94.2189      0.00000
    675      94.4179      0.00000
    676      94.4180      0.00000
    677      94.4810      0.00000
    678      94.7212      0.00000
    679      94.7213      0.00000
    680      94.7707      0.00000
    681      94.7708      0.00000
    682      95.1541      0.00000
    683      95.2272      0.00000
    684      95.4204      0.00000
    685      95.4204      0.00000
    686      95.5024      0.00000
    687      95.5733      0.00000
    688      95.5734      0.00000
    689      96.0448      0.00000
    690      96.0909      0.00000
    691      96.0910      0.00000
    692      96.2508      0.00000
    693      96.2508      0.00000
    694      96.2752      0.00000
    695      96.5018      0.00000
    696      96.5018      0.00000
    697      96.5788      0.00000
    698      96.9411      0.00000
    699      96.9411      0.00000
    700      97.1474      0.00000
    701      97.1475      0.00000
    702      97.2384      0.00000
    703      97.2707      0.00000
    704      97.3303      0.00000
    705      97.3303      0.00000
    706      97.7247      0.00000
    707      97.7248      0.00000
    708      97.7898      0.00000
    709      97.9154      0.00000
    710      97.9155      0.00000
    711      98.0436      0.00000
    712      98.0943      0.00000
    713      98.1376      0.00000
    714      98.2702      0.00000
    715      98.2702      0.00000
    716      98.4011      0.00000
    717      98.4092      0.00000
    718      98.4092      0.00000
    719      98.6447      0.00000
    720      98.6447      0.00000
    721      98.7073      0.00000
    722      99.0868      0.00000
    723      99.0868      0.00000
    724      99.2837      0.00000
    725      99.2838      0.00000
    726      99.4698      0.00000
    727      99.5499      0.00000
    728      99.7292      0.00000
    729      99.7294      0.00000
    730      99.8548      0.00000
    731     100.0889      0.00000
    732     100.0892      0.00000
    733     100.1052      0.00000
    734     100.3567      0.00000
    735     100.3567      0.00000
    736     100.7951      0.00000
    737     100.7952      0.00000
    738     100.9188      0.00000
    739     101.2654      0.00000
    740     101.2655      0.00000
    741     101.3436      0.00000
    742     101.5596      0.00000
    743     101.5598      0.00000
    744     101.7654      0.00000
    745     101.8208      0.00000
    746     101.8209      0.00000
    747     101.9291      0.00000
    748     102.1449      0.00000
    749     102.1450      0.00000
    750     102.2840      0.00000
    751     102.4584      0.00000
    752     102.4585      0.00000
    753     102.5130      0.00000
    754     102.5132      0.00000
    755     102.6196      0.00000
    756     102.8281      0.00000
    757     102.9200      0.00000
    758     102.9200      0.00000
    759     102.9410      0.00000
    760     102.9421      0.00000
    761     103.0979      0.00000
    762     103.0979      0.00000
    763     103.1113      0.00000
    764     103.1796      0.00000
    765     103.1796      0.00000
    766     103.4347      0.00000
    767     103.4594      0.00000
    768     103.4594      0.00000
    769     103.4798      0.00000
    770     103.4798      0.00000
    771     103.6527      0.00000
    772     103.6528      0.00000
    773     103.6914      0.00000
    774     103.8914      0.00000
    775     103.9465      0.00000
    776     103.9465      0.00000
    777     103.9595      0.00000
    778     104.1096      0.00000
    779     104.1097      0.00000
    780     104.2353      0.00000
    781     104.2353      0.00000
    782     104.3558      0.00000
    783     104.3925      0.00000
    784     104.3926      0.00000
    785     104.4177      0.00000
    786     104.6835      0.00000
    787     104.7446      0.00000
    788     104.7446      0.00000
    789     104.8398      0.00000
    790     104.9877      0.00000
    791     104.9877      0.00000
    792     105.0383      0.00000
    793     105.0731      0.00000
    794     105.1173      0.00000
    795     105.1174      0.00000
    796     105.1234      0.00000
    797     105.4098      0.00000
    798     105.4098      0.00000
    799     105.4208      0.00000
    800     105.4391      0.00000
    801     105.4392      0.00000
    802     105.5364      0.00000
    803     105.5770      0.00000
    804     105.5770      0.00000
    805     105.6007      0.00000
    806     105.8083      0.00000
    807     105.8176      0.00000
    808     105.9359      0.00000
    809     105.9359      0.00000
    810     106.1230      0.00000
    811     106.1230      0.00000
    812     106.1975      0.00000
    813     106.2621      0.00000
    814     106.2621      0.00000
    815     106.2704      0.00000
    816     106.4549      0.00000
    817     106.4549      0.00000
    818     106.4973      0.00000
    819     106.6132      0.00000
    820     106.6132      0.00000
    821     106.6461      0.00000
    822     106.8906      0.00000
    823     106.8906      0.00000
    824     106.9117      0.00000
    825     106.9376      0.00000
    826     106.9377      0.00000
    827     106.9707      0.00000
    828     107.0865      0.00000
    829     107.0865      0.00000
    830     107.2676      0.00000
    831     107.3816      0.00000
    832     107.3817      0.00000
    833     107.4247      0.00000
    834     107.4731      0.00000
    835     107.4732      0.00000
    836     107.5566      0.00000
    837     107.5566      0.00000
    838     107.5672      0.00000
    839     107.6532      0.00000
    840     107.6532      0.00000
    841     107.8198      0.00000
    842     107.8605      0.00000
    843     107.8605      0.00000
    844     107.9191      0.00000
    845     107.9192      0.00000
    846     107.9716      0.00000
    847     108.1229      0.00000
    848     108.1694      0.00000
    849     108.3651      0.00000
    850     108.4592      0.00000
    851     108.4593      0.00000
    852     108.4630      0.00000
    853     108.5855      0.00000
    854     108.5856      0.00000
    855     108.6901      0.00000
    856     108.6901      0.00000
    857     109.0034      0.00000
    858     109.2907      0.00000
    859     110.1172      0.00000
    860     110.1173      0.00000
    861     110.3574      0.00000
    862     110.6183      0.00000
    863     110.6183      0.00000
    864     110.7216      0.00000
    865     110.7216      0.00000
    866     110.7522      0.00000
    867     110.9205      0.00000
    868     110.9206      0.00000
    869     111.0861      0.00000
    870     111.2688      0.00000
    871     111.2689      0.00000
    872     111.5313      0.00000
    873     111.6250      0.00000
    874     111.7736      0.00000
    875     111.8255      0.00000
    876     111.8256      0.00000
    877     111.9922      0.00000
    878     112.0941      0.00000
    879     112.0942      0.00000
    880     112.6012      0.00000
    881     112.6012      0.00000
    882     112.6971      0.00000
    883     112.7814      0.00000
    884     112.7814      0.00000
    885     112.7982      0.00000
    886     112.9891      0.00000
    887     112.9998      0.00000
    888     112.9999      0.00000
    889     113.4496      0.00000
    890     113.4498      0.00000
    891     113.7266      0.00000
    892     113.7266      0.00000
    893     113.7394      0.00000
    894     113.8457      0.00000
    895     113.9421      0.00000
    896     113.9422      0.00000
    897     114.0363      0.00000
    898     114.0363      0.00000
    899     114.0536      0.00000
    900     114.4153      0.00000
    901     114.4154      0.00000
    902     114.5466      0.00000
    903     114.7419      0.00000
    904     114.7420      0.00000
    905     114.8041      0.00000
    906     115.0599      0.00000
    907     115.0600      0.00000
    908     115.2256      0.00000
    909     115.2298      0.00000
    910     115.2300      0.00000
    911     115.3449      0.00000
    912     115.5022      0.00000
    913     115.6837      0.00000
    914     115.6839      0.00000
    915     115.7770      0.00000
    916     115.8089      0.00000
    917     115.8090      0.00000
    918     115.9631      0.00000
    919     115.9632      0.00000
    920     116.1239      0.00000
    921     116.2006      0.00000
    922     116.2006      0.00000
    923     116.3708      0.00000
    924     116.5476      0.00000
    925     116.6689      0.00000
    926     116.7177      0.00000
    927     116.7178      0.00000
    928     116.7703      0.00000
    929     116.7703      0.00000
    930     116.7933      0.00000
    931     116.9220      0.00000
    932     116.9220      0.00000
    933     116.9281      0.00000
    934     116.9281      0.00000
    935     117.0816      0.00000
    936     117.2200      0.00000
    937     117.3019      0.00000
    938     117.3020      0.00000
    939     117.3973      0.00000
    940     117.4660      0.00000
    941     117.4662      0.00000
    942     117.5870      0.00000
    943     117.5870      0.00000
    944     117.7334      0.00000
    945     117.8287      0.00000
    946     117.8393      0.00000
    947     118.0202      0.00000
    948     118.0203      0.00000
    949     118.1478      0.00000
    950     118.2318      0.00000
    951     118.2319      0.00000
    952     118.4772      0.00000
    953     118.4773      0.00000
    954     118.6411      0.00000
    955     118.7496      0.00000
    956     118.8930      0.00000
    957     118.8932      0.00000
    958     119.0459      0.00000
    959     119.2569      0.00000
    960     119.3834      0.00000
    961     119.3839      0.00000
    962     119.4167      0.00000
    963     119.4169      0.00000
    964     119.7945      0.00000
    965     119.9245      0.00000
    966     119.9246      0.00000
    967     120.1259      0.00000
    968     120.1512      0.00000
    969     120.1512      0.00000
    970     120.1807      0.00000
    971     120.2628      0.00000
    972     120.4086      0.00000
    973     120.4086      0.00000
    974     120.4589      0.00000
    975     120.4591      0.00000
    976     120.6273      0.00000
    977     120.6908      0.00000
    978     120.6908      0.00000
    979     120.8202      0.00000
    980     120.8532      0.00000
    981     120.8876      0.00000
    982     120.8877      0.00000
    983     121.0442      0.00000
    984     121.1088      0.00000
    985     121.1090      0.00000
    986     121.1994      0.00000
    987     121.1995      0.00000
    988     121.4213      0.00000
    989     121.4214      0.00000
    990     121.6044      0.00000
    991     121.6045      0.00000
    992     121.6065      0.00000
    993     121.6244      0.00000
    994     121.7149      0.00000
    995     121.9599      0.00000
    996     121.9600      0.00000
    997     122.0490      0.00000
    998     122.0838      0.00000
    999     122.0838      0.00000
   1000     122.2379      0.00000
   1001     122.2380      0.00000
   1002     122.4118      0.00000
   1003     122.4807      0.00000
   1004     122.6124      0.00000
   1005     122.6125      0.00000
   1006     122.6474      0.00000
   1007     122.9071      0.00000
   1008     122.9072      0.00000
   1009     123.1089      0.00000
   1010     123.1092      0.00000
   1011     123.1210      0.00000
   1012     123.3394      0.00000
   1013     123.3396      0.00000
   1014     123.5745      0.00000
   1015     123.9849      0.00000
   1016     124.0720      0.00000
   1017     124.0721      0.00000
   1018     124.6436      0.00000
   1019     124.6438      0.00000
   1020     124.9078      0.00000
   1021     124.9480      0.00000
   1022     124.9480      0.00000
   1023     125.1686      0.00000
   1024     125.1686      0.00000
   1025     125.2759      0.00000
   1026     125.5186      0.00000
   1027     125.5188      0.00000
   1028     125.7480      0.00000
   1029     125.8049      0.00000
   1030     125.9996      0.00000
   1031     125.9998      0.00000
   1032     126.0854      0.00000
   1033     126.1760      0.00000
   1034     126.1761      0.00000
   1035     126.4293      0.00000
   1036     126.4295      0.00000
   1037     126.5352      0.00000
   1038     126.5352      0.00000
   1039     126.6763      0.00000
   1040     126.8080      0.00000
   1041     126.8443      0.00000
   1042     126.9026      0.00000
   1043     126.9027      0.00000
   1044     127.0604      0.00000
   1045     127.0836      0.00000
   1046     127.0837      0.00000
   1047     127.1599      0.00000
   1048     127.1599      0.00000
   1049     127.3493      0.00000
   1050     127.3493      0.00000
   1051     127.5087      0.00000
   1052     127.5087      0.00000
   1053     127.6809      0.00000
   1054     127.7789      0.00000
   1055     127.8013      0.00000
   1056     127.8014      0.00000
   1057     127.8625      0.00000
   1058     128.3116      0.00000
   1059     128.3116      0.00000
   1060     128.3264      0.00000
   1061     128.3541      0.00000
   1062     128.4117      0.00000
   1063     128.4117      0.00000
   1064     128.4946      0.00000
   1065     128.5324      0.00000
   1066     128.5325      0.00000
   1067     128.5943      0.00000
   1068     128.5943      0.00000
   1069     128.8313      0.00000
   1070     128.9155      0.00000
   1071     128.9155      0.00000
   1072     128.9558      0.00000
   1073     129.2064      0.00000
   1074     129.2770      0.00000
   1075     129.2770      0.00000
   1076     129.3172      0.00000
   1077     129.3387      0.00000
   1078     129.3387      0.00000
   1079     129.4062      0.00000
   1080     129.6149      0.00000
   1081     129.6150      0.00000
   1082     129.6902      0.00000
   1083     129.7542      0.00000
   1084     129.7542      0.00000
   1085     129.8825      0.00000
   1086     129.8825      0.00000
   1087     129.8892      0.00000
   1088     130.0180      0.00000
   1089     130.0287      0.00000
   1090     130.0289      0.00000
   1091     130.3013      0.00000
   1092     130.3798      0.00000
   1093     130.3799      0.00000
   1094     130.4013      0.00000
   1095     130.4520      0.00000
   1096     130.4521      0.00000
   1097     130.6345      0.00000
   1098     130.6346      0.00000
   1099     130.8604      0.00000
   1100     130.8605      0.00000
   1101     130.8612      0.00000
   1102     131.1274      0.00000
   1103     131.1981      0.00000
   1104     131.1982      0.00000
   1105     131.3125      0.00000
   1106     131.6337      0.00000
   1107     131.6338      0.00000
   1108     131.7028      0.00000
   1109     131.8008      0.00000
   1110     131.8008      0.00000
   1111     131.9578      0.00000
   1112     131.9765      0.00000
   1113     132.0657      0.00000
   1114     132.0657      0.00000
   1115     132.3305      0.00000
   1116     132.3522      0.00000
   1117     132.3522      0.00000
   1118     132.4110      0.00000
   1119     132.4198      0.00000
   1120     132.4199      0.00000
   1121     132.5988      0.00000
   1122     132.5988      0.00000
   1123     132.8004      0.00000
   1124     132.8408      0.00000
   1125     132.8598      0.00000
   1126     132.8599      0.00000
   1127     133.0824      0.00000
   1128     133.0826      0.00000
   1129     133.1254      0.00000
   1130     133.1736      0.00000
   1131     133.1910      0.00000
   1132     133.1910      0.00000
   1133     133.3476      0.00000
   1134     133.5119      0.00000
   1135     133.5119      0.00000
   1136     133.6655      0.00000
   1137     133.6655      0.00000
   1138     133.8172      0.00000
   1139     133.8172      0.00000
   1140     133.8308      0.00000
   1141     133.8810      0.00000
   1142     133.8810      0.00000
   1143     133.9668      0.00000
   1144     133.9925      0.00000
   1145     133.9925      0.00000
   1146     134.0128      0.00000
   1147     134.2157      0.00000
   1148     134.2158      0.00000
   1149     134.3800      0.00000
   1150     134.4128      0.00000
   1151     134.4128      0.00000
   1152     134.5442      0.00000
   1153     134.5862      0.00000
   1154     134.5863      0.00000
   1155     134.7191      0.00000
   1156     134.7514      0.00000
   1157     134.7577      0.00000
   1158     134.7577      0.00000
   1159     134.8808      0.00000
   1160     134.9188      0.00000
   1161     135.0076      0.00000
   1162     135.0076      0.00000
   1163     135.2669      0.00000
   1164     135.3390      0.00000
   1165     135.3391      0.00000
   1166     135.3715      0.00000
   1167     135.4846      0.00000
   1168     135.5936      0.00000
   1169     135.5936      0.00000
   1170     135.7320      0.00000
   1171     135.7680      0.00000
   1172     135.7681      0.00000
   1173     135.8610      0.00000
   1174     135.8610      0.00000
   1175     135.9960      0.00000
   1176     136.0204      0.00000
   1177     136.0204      0.00000
   1178     136.2255      0.00000
   1179     136.2925      0.00000
   1180     136.2925      0.00000
   1181     136.4112      0.00000
   1182     136.5454      0.00000
   1183     136.5454      0.00000
   1184     136.6978      0.00000
   1185     136.6979      0.00000
   1186     136.7649      0.00000
   1187     136.9681      0.00000
   1188     137.2436      0.00000
   1189     137.2436      0.00000
   1190     137.4278      0.00000
   1191     137.4279      0.00000
   1192     137.4590      0.00000
   1193     137.5221      0.00000
   1194     137.5443      0.00000
   1195     137.5443      0.00000
   1196     137.6381      0.00000
   1197     137.6381      0.00000
   1198     137.7035      0.00000
   1199     137.7835      0.00000
   1200     137.8230      0.00000
   1201     137.8436      0.00000
   1202     137.8436      0.00000
   1203     138.1789      0.00000
   1204     138.1789      0.00000
   1205     138.2564      0.00000
   1206     138.2989      0.00000
   1207     138.2990      0.00000
   1208     138.3091      0.00000
   1209     138.4425      0.00000
   1210     138.6165      0.00000
   1211     138.6165      0.00000
   1212     138.6192      0.00000
   1213     138.6451      0.00000
   1214     138.6933      0.00000
   1215     138.7331      0.00000
   1216     138.7331      0.00000
   1217     138.7971      0.00000
   1218     139.0361      0.00000
   1219     139.0362      0.00000
   1220     139.2170      0.00000
   1221     139.2361      0.00000
   1222     139.2362      0.00000
   1223     139.3477      0.00000
   1224     139.3478      0.00000
   1225     139.3880      0.00000
   1226     139.3993      0.00000
   1227     139.3994      0.00000
   1228     139.5376      0.00000
   1229     139.5376      0.00000
   1230     139.5975      0.00000
   1231     139.6342      0.00000
   1232     139.7865      0.00000
   1233     139.8248      0.00000
   1234     139.8252      0.00000
   1235     139.9084      0.00000
   1236     139.9100      0.00000
   1237     139.9101      0.00000
   1238     140.1829      0.00000
   1239     140.1830      0.00000
   1240     140.2550      0.00000
   1241     140.6120      0.00000
   1242     140.6120      0.00000
   1243     140.6219      0.00000
   1244     140.8056      0.00000
   1245     140.8058      0.00000
   1246     140.9562      0.00000
   1247     140.9564      0.00000
   1248     141.0264      0.00000
   1249     141.1028      0.00000
   1250     141.1031      0.00000
   1251     141.2905      0.00000
   1252     141.2907      0.00000
   1253     141.5414      0.00000
   1254     141.5923      0.00000
   1255     141.5925      0.00000
   1256     141.6358      0.00000
   1257     141.7060      0.00000
   1258     141.7066      0.00000
   1259     141.7532      0.00000
   1260     142.0415      0.00000
   1261     142.0419      0.00000
   1262     142.1240      0.00000
   1263     142.1817      0.00000
   1264     142.1820      0.00000
   1265     142.4119      0.00000
   1266     142.6088      0.00000
   1267     142.6091      0.00000
   1268     142.6895      0.00000
   1269     142.7907      0.00000
   1270     142.8151      0.00000
   1271     142.8152      0.00000
   1272     143.0721      0.00000
   1273     143.0722      0.00000
   1274     143.2000      0.00000
   1275     143.2748      0.00000
   1276     143.2748      0.00000
   1277     143.2916      0.00000
   1278     143.5627      0.00000
   1279     143.6556      0.00000
   1280     143.7165      0.00000
   1281     143.7168      0.00000
   1282     143.8703      0.00000
   1283     143.8704      0.00000
   1284     143.9045      0.00000
   1285     143.9223      0.00000
   1286     143.9225      0.00000
   1287     144.1780      0.00000
   1288     144.1781      0.00000
   1289     144.4088      0.00000
   1290     144.4486      0.00000
   1291     144.4488      0.00000
   1292     144.7076      0.00000
   1293     145.0729      0.00000
   1294     145.0730      0.00000
   1295     145.1976      0.00000
   1296     145.3368      0.00000
   1297     145.3760      0.00000
   1298     145.3761      0.00000
   1299     145.5103      0.00000
   1300     145.5103      0.00000
   1301     145.6092      0.00000
   1302     145.6209      0.00000
   1303     145.6210      0.00000
   1304     145.6573      0.00000
   1305     145.6759      0.00000
   1306     145.7264      0.00000
   1307     145.7735      0.00000
   1308     145.7735      0.00000
   1309     145.9795      0.00000
   1310     146.0344      0.00000
   1311     146.0345      0.00000
   1312     146.2198      0.00000
   1313     146.2198      0.00000
   1314     146.4448      0.00000
   1315     146.5252      0.00000
   1316     146.5253      0.00000
   1317     146.6380      0.00000
   1318     146.6481      0.00000
   1319     146.6482      0.00000
   1320     146.7576      0.00000
   1321     146.7755      0.00000
   1322     146.9441      0.00000
   1323     146.9442      0.00000
   1324     147.0431      0.00000
   1325     147.0432      0.00000
   1326     147.2835      0.00000
   1327     147.3017      0.00000
   1328     147.3018      0.00000
   1329     147.4300      0.00000
   1330     147.4363      0.00000
   1331     147.5306      0.00000
   1332     147.5306      0.00000
   1333     147.6076      0.00000
   1334     147.6361      0.00000
   1335     147.6361      0.00000
   1336     147.8819      0.00000
   1337     147.8820      0.00000
   1338     148.1374      0.00000
   1339     148.1855      0.00000
   1340     148.1856      0.00000
   1341     148.4164      0.00000
   1342     148.6119      0.00000
   1343     148.6122      0.00000
   1344     148.7984      0.00000
   1345     149.0965      0.00000
   1346     149.3881      0.00000
   1347     149.3882      0.00000
   1348     149.5743      0.00000
   1349     149.5745      0.00000
   1350     149.6604      0.00000
   1351     149.7685      0.00000
   1352     149.8402      0.00000
   1353     149.8650      0.00000
   1354     149.8652      0.00000
   1355     149.9350      0.00000
   1356     149.9718      0.00000
   1357     149.9719      0.00000
   1358     150.3126      0.00000
   1359     150.3128      0.00000
   1360     150.5150      0.00000
   1361     150.5151      0.00000
   1362     150.5188      0.00000
   1363     150.7081      0.00000
   1364     150.7083      0.00000
   1365     151.1493      0.00000
   1366     151.1791      0.00000
   1367     151.1795      0.00000
   1368     151.2637      0.00000
   1369     151.3096      0.00000
   1370     151.3640      0.00000
   1371     151.3642      0.00000
   1372     151.3805      0.00000
   1373     151.4860      0.00000
   1374     151.5408      0.00000
   1375     151.5417      0.00000
   1376     151.6137      0.00000
   1377     151.6579      0.00000
   1378     151.6579      0.00000
   1379     151.8705      0.00000
   1380     152.0066      0.00000
   1381     152.0185      0.00000
   1382     152.0187      0.00000
   1383     152.1368      0.00000
   1384     152.1370      0.00000
   1385     152.2782      0.00000
   1386     152.2783      0.00000
   1387     152.3201      0.00000
   1388     152.3504      0.00000
   1389     152.4303      0.00000
   1390     152.4649      0.00000
   1391     152.4652      0.00000
   1392     152.5904      0.00000
   1393     152.5905      0.00000
   1394     152.6066      0.00000
   1395     152.6067      0.00000
   1396     152.6141      0.00000
   1397     152.8639      0.00000
   1398     153.1868      0.00000
   1399     153.2001      0.00000
   1400     153.2004      0.00000
   1401     153.2530      0.00000
   1402     153.2841      0.00000
   1403     153.2841      0.00000
   1404     153.3178      0.00000
   1405     153.3181      0.00000
   1406     153.4320      0.00000
   1407     153.4324      0.00000
   1408     153.5715      0.00000
   1409     153.5792      0.00000
   1410     153.5793      0.00000
   1411     153.6245      0.00000
   1412     153.6913      0.00000
   1413     153.8209      0.00000
   1414     153.8213      0.00000
   1415     153.8979      0.00000
   1416     153.8979      0.00000
   1417     154.0027      0.00000
   1418     154.0199      0.00000
   1419     154.0205      0.00000
   1420     154.0320      0.00000
   1421     154.2129      0.00000
   1422     154.2132      0.00000
   1423     154.2946      0.00000
   1424     154.3373      0.00000
   1425     154.3373      0.00000
   1426     154.5454      0.00000
   1427     154.5455      0.00000
   1428     154.5938      0.00000
   1429     154.7069      0.00000
   1430     154.7150      0.00000
   1431     154.7151      0.00000
   1432     154.7208      0.00000
   1433     154.8807      0.00000
   1434     154.8809      0.00000
   1435     154.9170      0.00000
   1436     155.0506      0.00000
[...]
   5892     398.6272      0.00000
   5893     398.6724      0.00000
   5894     398.6725      0.00000
   5895     398.6745      0.00000
   5896     398.8839      0.00000
   5897     398.8868      0.00000
   5898     398.9216      0.00000
   5899     398.9250      0.00000
   5900     398.9264      0.00000
   5901     398.9576      0.00000
   5902     399.1099      0.00000
   5903     399.1158      0.00000
   5904     399.1160      0.00000
   5905     399.1296      0.00000
   5906     399.1438      0.00000
   5907     399.1477      0.00000
   5908     399.2374      0.00000
   5909     399.2407      0.00000
   5910     399.2429      0.00000
   5911     399.2467      0.00000
   5912     399.2526      0.00000
   5913     399.2657      0.00000
   5914     399.5672      0.00000
   5915     399.5682      0.00000
   5916     399.6146      0.00000
   5917     399.6161      0.00000
   5918     399.6188      0.00000
   5919     399.6459      0.00000
   5920     399.7058      0.00000
   5921     399.7067      0.00000
   5922     399.7174      0.00000
   5923     399.7510      0.00000
   5924     399.7511      0.00000
   5925     399.7689      0.00000
   5926     399.7841      0.00000
   5927     399.7849      0.00000
   5928     399.7890      0.00000
   5929     399.7902      0.00000
   5930     399.8027      0.00000
   5931     399.8296      0.00000
   5932     399.8693      0.00000
   5933     399.8715      0.00000
   5934     399.9002      0.00000
   5935     399.9023      0.00000
   5936     399.9091      0.00000
   5937     399.9095      0.00000
   5938     400.0302      0.00000
   5939     400.0475      0.00000
   5940     400.0483      0.00000
   5941     400.0779      0.00000
   5942     400.0784      0.00000
   5943     400.1059      0.00000
   5944     400.1334      0.00000
   5945     400.1335      0.00000
   5946     400.1506      0.00000
   5947     400.1623      0.00000
   5948     400.1633      0.00000
   5949     400.1828      0.00000
   5950     400.2377      0.00000
   5951     400.2447      0.00000
   5952     400.2447      0.00000
   5953     400.2703      0.00000
   5954     400.2708      0.00000
   5955     400.2935      0.00000
   5956     400.2997      0.00000
   5957     400.3134      0.00000
   5958     400.3150      0.00000
   5959     400.3352      0.00000
   5960     400.3365      0.00000
   5961     400.3437      0.00000
   5962   10000.0000      0.00000
   5963   10000.0000      0.00000
   5964   10000.0000      0.00000
   5965   10000.0000      0.00000
   5966   10000.0000      0.00000
   5967   10000.0000      0.00000
   5968   10000.0000      0.00000
   5969   10000.0000      0.00000
   5970   10000.0000      0.00000
   5971   10000.0000      0.00000
   5972   10000.0000      0.00000
   5973   10000.0000      0.00000
   5974   10000.0000      0.00000
   5975   10000.0000      0.00000
   5976   10000.0000      0.00000
   5977   10000.0000      0.00000
   5978   10000.0000      0.00000
   5979   10000.0000      0.00000
   5980   10000.0000      0.00000
   5981   10000.0000      0.00000
   5982   10000.0000      0.00000
   5983   10000.0000      0.00000
   5984   10000.0000      0.00000
   5985   10000.0000      0.00000
   5986   10000.0000      0.00000
   5987   10000.0000      0.00000
   5988   10000.0000      0.00000
   5989   10000.0000      0.00000
   5990   10000.0000      0.00000
   5991   10000.0000      0.00000
   5992   10000.0000      0.00000
   5993   10000.0000      0.00000
   5994   10000.0000      0.00000
   5995   10000.0000      0.00000
   5996   10000.0000      0.00000
   5997   10000.0000      0.00000
   5998   10000.0000      0.00000
   5999   10000.0000      0.00000
   6000   10000.0000      0.00000
   6001   10000.0000      0.00000
   6002   10000.0000      0.00000
   6003   10000.0000      0.00000
   6004   10000.0000      0.00000
   6005   10000.0000      0.00000
   6006   10000.0000      0.00000
   6007   10000.0000      0.00000
   6008   10000.0000      0.00000
   6009   10000.0000      0.00000
   6010   10000.0000      0.00000
   6011   10000.0000      0.00000
   6012   10000.0000      0.00000
   6013   10000.0000      0.00000
   6014   10000.0000      0.00000
   6015   10000.0000      0.00000
   6016   10000.0000      0.00000
   6017   10000.0000      0.00000
   6018   10000.0000      0.00000
   6019   10000.0000      0.00000
   6020   10000.0000      0.00000
   6021   10000.0000      0.00000
   6022   10000.0000      0.00000
   6023   10000.0000      0.00000
   6024   10000.0000      0.00000
   6025   10000.0000      0.00000
   6026   10000.0000      0.00000
   6027   10000.0000      0.00000
   6028   10000.0000      0.00000
   6029   10000.0000      0.00000
   6030   10000.0000      0.00000
   6031   10000.0000      0.00000
   6032   10000.0000      0.00000
   6033   10000.0000      0.00000
   6034   10000.0000      0.00000
   6035   10000.0000      0.00000
   6036   10000.0000      0.00000
   6037   10000.0000      0.00000
   6038   10000.0000      0.00000
   6039   10000.0000      0.00000
   6040   10000.0000      0.00000
   6041   10000.0000      0.00000
   6042   10000.0000      0.00000
   6043   10000.0000      0.00000
   6044   10000.0000      0.00000
   6045   10000.0000      0.00000
   6046   10000.0000      0.00000
   6047   10000.0000      0.00000
   6048   10000.0000      0.00000
   6049   10000.0000      0.00000
   6050   10000.0000      0.00000
   6051   10000.0000      0.00000
   6052   10000.0000      0.00000
   6053   10000.0000      0.00000
   6054   10000.0000      0.00000
   6055   10000.0000      0.00000
   6056   10000.0000      0.00000
   6057   10000.0000      0.00000
   6058   10000.0000      0.00000
   6059   10000.0000      0.00000
   6060   10000.0000      0.00000
   6061   10000.0000      0.00000
   6062   10000.0000      0.00000
   6063   10000.0000      0.00000
   6064   10000.0000      0.00000
   6065   10000.0000      0.00000
   6066   10000.0000      0.00000
   6067   10000.0000      0.00000
   6068   10000.0000      0.00000
   6069   10000.0000      0.00000
   6070   10000.0000      0.00000
   6071   10000.0000      0.00000
   6072   10000.0000      0.00000
   6073   10000.0000      0.00000
   6074   10000.0000      0.00000
   6075   10000.0000      0.00000
   6076   10000.0000      0.00000
   6077   10000.0000      0.00000
   6078   10000.0000      0.00000
   6079   10000.0000      0.00000
   6080   10000.0000      0.00000
   6081   10000.0000      0.00000
   6082   10000.0000      0.00000
   6083   10000.0000      0.00000
   6084   10000.0000      0.00000
   6085   10000.0000      0.00000
   6086   10000.0000      0.00000
   6087   10000.0000      0.00000
   6088   10000.0000      0.00000
   6089   10000.0000      0.00000
   6090   10000.0000      0.00000
   6091   10000.0000      0.00000
   6092   10000.0000      0.00000
   6093   10000.0000      0.00000
   6094   10000.0000      0.00000
   6095   10000.0000      0.00000
   6096   10000.0000      0.00000
   6097   10000.0000      0.00000
   6098   10000.0000      0.00000
   6099   10000.0000      0.00000
   6100   10000.0000      0.00000
   6101   10000.0000      0.00000
   6102   10000.0000      0.00000
   6103   10000.0000      0.00000
   6104   10000.0000      0.00000
   6105   10000.0000      0.00000
   6106   10000.0000      0.00000
   6107   10000.0000      0.00000
   6108   10000.0000      0.00000
   6109   10000.0000      0.00000
   6110   10000.0000      0.00000
   6111   10000.0000      0.00000
   6112   10000.0000      0.00000
   6113   10000.0000      0.00000
   6114   10000.0000      0.00000
   6115   10000.0000      0.00000
   6116   10000.0000      0.00000
   6117   10000.0000      0.00000
   6118   10000.0000      0.00000
   6119   10000.0000      0.00000
   6120   10000.0000      0.00000
   6121   10000.0000      0.00000
   6122   10000.0000      0.00000
   6123   10000.0000      0.00000
   6124   10000.0000      0.00000
   6125   10000.0000      0.00000
   6126   10000.0000      0.00000
   6127   10000.0000      0.00000
   6128   10000.0000      0.00000
   6129   10000.0000      0.00000
   6130   10000.0000      0.00000
   6131   10000.0000      0.00000
   6132   10000.0000      0.00000
   6133   10000.0000      0.00000
   6134   10000.0000      0.00000
   6135   10000.0000      0.00000
   6136   10000.0000      0.00000
   6137   10000.0000      0.00000
   6138   10000.0000      0.00000
   6139   10000.0000      0.00000
   6140   10000.0000      0.00000
   6141   10000.0000      0.00000
   6142   10000.0000      0.00000
   6143   10000.0000      0.00000
   6144   10000.0000      0.00000


--------------------------------------------------------------------------------------------------------


 soft charge-density along one line, spin component           1
         0         1         2         3         4         5         6         7         8         9
 total charge-density along one line
 
 pseudopotential strength for first ion, spin component:           1
 14.360 -16.665  -0.005   0.005   0.005   0.014  -0.014  -0.014
-16.665  52.844   0.000  -0.000  -0.000  -0.002   0.002   0.002
 -0.005   0.000   3.351   0.007   0.007  -9.806  -0.018  -0.018
  0.005  -0.000   0.007   3.351  -0.007  -0.018  -9.806   0.018
  0.005  -0.000   0.007  -0.007   3.351  -0.018   0.018  -9.806
  0.014  -0.002  -9.806  -0.018  -0.018  31.255   0.048   0.048
 -0.014   0.002  -0.018  -9.806   0.018   0.048  31.255  -0.048
 -0.014   0.002  -0.018   0.018  -9.806   0.048  -0.048  31.255
  0.010   0.006   0.002   0.000  -0.002  -0.003  -0.000   0.003
  0.010   0.006   0.002  -0.002   0.000  -0.003   0.003  -0.000
  0.000   0.000   0.001   0.003  -0.001  -0.003  -0.006   0.003
 -0.010  -0.006   0.000   0.002   0.002  -0.000  -0.003  -0.003
  0.000   0.000   0.003   0.000   0.003  -0.005  -0.000  -0.005
 -0.044   0.018  -0.008  -0.000   0.008   0.023   0.001  -0.023
 -0.043   0.018  -0.008   0.008  -0.000   0.023  -0.023   0.001
 -0.000   0.000  -0.007  -0.014   0.007   0.019   0.038  -0.019
  0.043  -0.018  -0.000  -0.008  -0.008   0.001   0.023   0.023
 -0.000   0.000  -0.012  -0.000  -0.012   0.033   0.000   0.033
 total augmentation occupancy for first ion, spin component:           1
  1.837   0.040  -0.041   0.041   0.041  -0.000   0.000   0.000  -0.009  -0.009  -0.000   0.009  -0.000   0.001   0.001   0.000
  0.040   0.001   0.001  -0.001  -0.001   0.000  -0.000  -0.000   0.001   0.001  -0.000  -0.001  -0.000   0.000   0.000   0.000
 -0.041   0.001   1.070  -0.165  -0.165   0.048  -0.002  -0.002  -0.010  -0.010  -0.026  -0.021  -0.044  -0.000  -0.000  -0.000
  0.041  -0.001  -0.165   1.070   0.165  -0.002   0.048   0.002  -0.021   0.010  -0.051  -0.010   0.000  -0.001   0.000  -0.001
  0.041  -0.001  -0.165   0.165   1.070  -0.002   0.002   0.048   0.010  -0.021   0.026  -0.010  -0.044   0.000  -0.001   0.000
 -0.000   0.000   0.048  -0.002  -0.002   0.002   0.000   0.000  -0.000  -0.000  -0.001  -0.002  -0.002   0.000   0.000  -0.000
  0.000  -0.000  -0.002   0.048   0.002   0.000   0.002  -0.000  -0.002   0.000  -0.002  -0.000   0.000  -0.000  -0.000  -0.000
  0.000  -0.000  -0.002   0.002   0.048   0.000  -0.000   0.002   0.000  -0.002   0.001  -0.000  -0.002  -0.000  -0.000   0.000
 -0.009   0.001  -0.010  -0.021   0.010  -0.000  -0.002   0.000   0.037  -0.003  -0.016   0.003  -0.000   0.001   0.000  -0.000
 -0.009   0.001  -0.010   0.010  -0.021  -0.000   0.000  -0.002  -0.003   0.037   0.008   0.003  -0.014   0.000   0.001   0.000
 -0.000  -0.000  -0.026  -0.051   0.026  -0.001  -0.002   0.001  -0.016   0.008   0.033  -0.008   0.000  -0.000   0.000   0.001
  0.009  -0.001  -0.021  -0.010  -0.010  -0.002  -0.000  -0.000   0.003   0.003  -0.008   0.037  -0.014  -0.000  -0.000  -0.000
 -0.000  -0.000  -0.044   0.000  -0.044  -0.002   0.000  -0.002  -0.000  -0.014   0.000  -0.014   0.033  -0.000  -0.000   0.000
  0.001   0.000  -0.000  -0.001   0.000   0.000  -0.000  -0.000   0.001   0.000  -0.000  -0.000  -0.000   0.000   0.000  -0.000
  0.001   0.000  -0.000   0.000  -0.001   0.000  -0.000  -0.000   0.000   0.001   0.000  -0.000  -0.000   0.000   0.000   0.000
  0.000   0.000  -0.000  -0.001   0.000  -0.000  -0.000   0.000  -0.000   0.000   0.001  -0.000   0.000  -0.000   0.000   0.000
 -0.001  -0.000  -0.001  -0.000  -0.000  -0.000   0.000   0.000  -0.000  -0.000  -0.000   0.001  -0.000  -0.000  -0.000  -0.000
  0.000   0.000  -0.001   0.000  -0.001  -0.000   0.000  -0.000  -0.000  -0.000   0.000  -0.000   0.001  -0.000  -0.000   0.000


------------------------ aborting loop because EDIFF is reached ----------------------------------------


    CHARGE:  cpu time      0.0647: real time      0.0649
    FORLOC:  cpu time      0.0073: real time      0.0073
    FORHF :  cpu time      0.3877: real time      0.3889
    FORNL :  cpu time      0.1854: real time      0.1858
    FORCOR:  cpu time      0.1882: real time      0.1889
    FORHAR:  cpu time      0.0593: real time      0.0595
    MIXING:  cpu time      0.0004: real time      0.0004
    OFIELD:  cpu time      0.0001: real time      0.0002

 VOLUME and BASIS-vectors are now :
 -----------------------------------------------------------------------------
  energy-cutoff  :      400.00
  volume of cell :      327.28
      direct lattice vectors                 reciprocal lattice vectors
     5.469713400  5.469713400  0.000000000     0.091412468  0.091412468 -0.091412468
     0.000000000  5.469713400  5.469713400    -0.091412468  0.091412468  0.091412468
     5.469713400  0.000000000  5.469713400     0.091412468 -0.091412468  0.091412468

  length of vectors
     7.735342873  7.735342873  7.735342873     0.158331039  0.158331039  0.158331039


 FORCES acting on ions
    electron-ion (+dipol)            ewald-force                    non-local-force                 convergence-correction
 -----------------------------------------------------------------------------------------------
   -.242E+01 0.242E+01 -.242E+01   0.125E+01 -.125E+01 0.125E+01   -.236E+00 0.236E+00 -.236E+00   -.115E-03 -.987E-04 -.633E-04
   0.576E+01 -.576E+01 0.576E+01   -.670E+01 0.670E+01 -.670E+01   0.129E+01 -.129E+01 0.129E+01   -.154E-03 0.267E-03 -.229E-03
   -.489E+01 0.489E+01 0.212E+02   0.452E+01 -.452E+01 -.230E+02   0.420E-01 -.422E-01 0.256E+01   -.195E-03 0.972E-04 0.648E-03
   0.212E+02 0.489E+01 -.489E+01   -.230E+02 -.452E+01 0.452E+01   0.256E+01 -.427E-01 0.421E-01   0.625E-03 0.168E-03 -.257E-03
   -.489E+01 -.212E+02 -.489E+01   0.452E+01 0.230E+02 0.452E+01   0.428E-01 -.256E+01 0.424E-01   -.215E-03 -.539E-03 -.210E-03
   -.821E+00 0.120E+02 -.820E+00   0.177E+01 -.128E+02 0.177E+01   -.105E+01 0.999E+00 -.105E+01   0.212E-03 0.651E-03 0.160E-03
   -.120E+02 0.821E+00 -.820E+00   0.128E+02 -.177E+01 0.177E+01   -.999E+00 0.105E+01 -.105E+01   -.601E-03 -.266E-03 0.198E-03
   -.820E+00 0.821E+00 -.120E+02   0.177E+01 -.177E+01 0.128E+02   -.105E+01 0.105E+01 -.999E+00   0.190E-03 -.199E-03 -.546E-03
   0.113E+01 -.113E+01 0.113E+01   -.115E+01 0.115E+01 -.115E+01   0.238E+00 -.238E+00 0.238E+00   0.161E-03 -.149E-03 0.236E-03
   0.125E+02 0.175E+02 0.125E+02   -.117E+02 -.187E+02 -.117E+02   0.491E-01 0.193E+01 0.490E-01   0.110E-03 0.613E-03 0.235E-03
   -.175E+02 -.125E+02 0.125E+02   0.187E+02 0.117E+02 -.117E+02   -.193E+01 -.488E-01 0.489E-01   -.457E-03 -.213E-03 0.197E-03
   0.125E+02 -.125E+02 -.175E+02   -.117E+02 0.117E+02 0.187E+02   0.481E-01 -.479E-01 -.193E+01   0.441E-04 -.176E-03 -.573E-03
   -.132E+01 0.132E+01 -.132E+01   0.352E+00 -.352E+00 0.352E+00   0.727E+00 -.727E+00 0.728E+00   0.210E-03 -.617E-04 0.955E-04
   -.104E+02 0.104E+02 -.104E+02   0.989E+01 -.989E+01 0.989E+01   0.425E+00 -.425E+00 0.425E+00   -.127E-03 0.203E-03 -.274E-03
   -.137E+00 0.137E+00 0.554E+00   0.217E+00 -.217E+00 -.165E+01   0.817E-01 -.818E-01 0.115E+01   -.193E-03 0.972E-04 0.415E-03
   0.554E+00 0.137E+00 -.137E+00   -.165E+01 -.217E+00 0.217E+00   0.115E+01 -.820E-01 0.815E-01   0.575E-03 0.808E-04 -.380E-04
   -.137E+00 -.554E+00 -.137E+00   0.217E+00 0.165E+01 0.217E+00   0.820E-01 -.115E+01 0.817E-01   -.209E-03 -.462E-03 -.607E-04
 -----------------------------------------------------------------------------------------------
   -.162E+01 0.162E+01 -.162E+01   0.241E-14 0.200E-14 0.213E-13   0.146E+01 -.146E+01 0.147E+01   -.140E-03 0.138E-04 -.668E-04
 
 
 POSITION                                       TOTAL-FORCE (eV/Angst)
 -----------------------------------------------------------------------------------
      2.35776      3.11196      2.35776        -1.353088      1.352985     -1.353280
      5.27088      0.19883      5.27088         0.408641     -0.408636      0.408418
      2.77260      8.16683      5.45864        -0.289070      0.288951      1.128712
      5.45864      8.16683      2.77260         1.128641      0.288950     -0.289169
      2.77260      5.48078      2.77260        -0.288959     -1.128598     -0.289096
      8.16939     10.86653      8.16939        -0.250972      0.282606     -0.250879
      5.54261      8.23975      8.16939        -0.282585      0.251043     -0.250949
      8.16939      8.23975      5.54261        -0.251276      0.251248     -0.282688
      5.53894      5.40049      5.53894         0.265893     -0.265894      0.265781
      1.28699      1.19729      1.28699         0.768218      1.010724      0.768219
      4.27242      4.18272      1.28699        -1.010690     -0.768260      0.768150
      1.28699      4.18272      4.27242         0.767900     -0.768008     -1.010609
      4.18196      6.75746      4.18196        -0.159545      0.159820     -0.159301
      3.88414      1.58558      3.88414        -0.035973      0.036137     -0.035886
      6.87308      4.06635      4.13445         0.175474     -0.175560      0.231732
      4.13445      4.06635      6.87308         0.231916     -0.175616      0.175427
      6.87308      6.80498      6.87308         0.175475     -0.231892      0.175417
 -----------------------------------------------------------------------------------
    total drift:                                0.000105     -0.000077      0.000223


--------------------------------------------------------------------------------------------------------



  FREE ENERGIE OF THE ION-ELECTRON SYSTEM (eV)
  ---------------------------------------------------
  free  energy   TOTEN  =      -149.37117809 eV

  energy  without entropy=     -149.37117809  energy(sigma->0) =     -149.37117809
 


--------------------------------------------------------------------------------------------------------


    POTLOK:  cpu time      0.2101: real time      0.2109


--------------------------------------------------------------------------------------------------------


 writing wavefunctions
     LOOP+:  cpu time    264.8767: real time    265.6143
    4ORBIT:  cpu time      0.0000: real time      0.0000

 total amount of memory used by VASP MPI-rank0   182024. kBytes
=======================================================================

   base      :      30000. kBytes
   nonl-proj :       1277. kBytes
   fftplans  :        558. kBytes
   grid      :       2897. kBytes
   one-center:        132. kBytes
   HF        :         64. kBytes
   nonlr-proj:       8505. kBytes
   wavefun   :        835. kBytes
   fock_wrk  :     137756. kBytes
 
  
  
 General timing and accounting informations for this job:
 ========================================================
  
                  Total CPU time used (sec):      314.891
                            User time (sec):      168.519
                          System time (sec):      146.372
                         Elapsed time (sec):      316.024
  
                   Maximum memory used (kb):      480900.
                   Average memory used (kb):          N/A
  
                          Minor page faults:       182213
                          Major page faults:            0
                 Voluntary context switches:         1460
