 vasp.6.3.0 20Jan22 (build Mar 03 2022 12:53:00) gamma-only                     
  
 executed on             LinuxIFC date 2022.03.15  20:38:19
 running on  384 total cores
 distrk:  each k-point on  384 cores,    1 groups
 distr:  one band on NCORE=   1 cores,  384 groups


--------------------------------------------------------------------------------------------------------


 INCAR:
   ENCUT = 400
   SIGMA = 0.0001
   EDIFF = 1E-6
   LHFCALC = .TRUE.
   AEXX = 1.0
   ISYM = -1
   ALGO = sub
   NELM = 1
   NBANDS = 992
   NBANDSHIGH = 992

 POTCAR:    PAW Si_GW 04May2012                   
 -----------------------------------------------------------------------------
|                                                                             |
|           W    W    AA    RRRRR   N    N  II  N    N   GGGG   !!!           |
|           W    W   A  A   R    R  NN   N  II  NN   N  G    G  !!!           |
|           W    W  A    A  R    R  N N  N  II  N N  N  G       !!!           |
|           W WW W  AAAAAA  RRRRR   N  N N  II  N  N N  G  GGG   !            |
|           WW  WW  A    A  R   R   N   NN  II  N   NN  G    G                |
|           W    W  A    A  R    R  N    N  II  N    N   GGGG   !!!           |
|                                                                             |
|     For optimal performance we recommend to set                             |
|       NCORE = 2 up to number-of-cores-per-socket                            |
|     NCORE specifies how many cores store one orbital (NPAR=cpu/NCORE).      |
|     This setting can greatly improve the performance of VASP for DFT.       |
|     The default, NCORE=1 might be grossly inefficient on modern             |
|     multi-core architectures or massively parallel machines. Do your        |
|     own testing! More info at https://www.vasp.at/wiki/index.php/NCORE      |
|     Unfortunately you need to use the default for GW and RPA                |
|     calculations (for HF NCORE is supported but not extensively tested      |
|     yet).                                                                   |
|                                                                             |
 -----------------------------------------------------------------------------

 POTCAR:    PAW Si_GW 04May2012                   
   VRHFIN =Si: s2p2                                                                                 
   LEXCH  = PE                                                                                      
   EATOM  =   103.0669 eV,    7.5752 Ry                                                             
                                                                                                    
   TITEL  = PAW Si_GW 04May2012                                                                     
   LULTRA =        F    use ultrasoft PP ?                                                          
   IUNSCR =        1    unscreen: 0-lin 1-nonlin 2-no                                               
   RPACOR =    1.500    partial core radius                                                         
   POMASS =   28.085; ZVAL   =    4.000    mass and valenz                                          
   RCORE  =    1.900    outmost cutoff radius                                                       
   RWIGS  =    2.480; RWIGS  =    1.312    wigner-seitz radius (au A)                               
   ENMAX  =  245.345; ENMIN  =  184.009 eV                                                          
   ICORE  =        3    local potential                                                             
   LCOR   =        T    correct aug charges                                                         
   LPAW   =        T    paw PP                                                                      
   EAUG   =  412.952                                                                                
   DEXC   =    0.000                                                                                
   RMAX   =    1.950    core radius for proj-oper                                                   
   RAUG   =    1.300    factor for augmentation sphere                                              
   RDEP   =    1.993    radius for radial grids                                                     
   RDEPT  =    2.000    core radius for aug-charge                                                  
                                                                                                    
   Atomic configuration                                                                             
    7 entries                                                                                       
     n  l   j            E        occ.                                                              
     1  0  0.50     -1785.8828   2.0000                                                             
     2  0  0.50      -139.4969   2.0000                                                             
     2  1  1.50       -95.5546   6.0000                                                             
     3  0  0.50       -10.8127   2.0000                                                             
     3  1  0.50        -4.0811   2.0000                                                             
     3  2  1.50        -4.0817   0.0000                                                             
     4  3  2.50        -4.0817   0.0000                                                             
   Description                                                                                      
     l       E           TYP  RCUT    TYP  RCUT                                                     
     0    -10.8127223     23  1.900                                                                 
     0     95.2407820     23  1.900                                                                 
     1     -4.0811372     23  1.900                                                                 
     1     54.4233040     23  1.900                                                                 
     2     -8.1634956     23  1.900                                                                 
     2     81.6349560     23  1.900                                                                 
     3     27.2116520     23  1.900                                                                 
  local pseudopotential read in
  partial core-charges read in
  partial kinetic energy density read in
  kinetic energy density of atom read in
  atomic valenz-charges read in
  non local Contribution for L=           0  read in
    real space projection operators read in
  non local Contribution for L=           0  read in
    real space projection operators read in
  non local Contribution for L=           1  read in
    real space projection operators read in
  non local Contribution for L=           1  read in
    real space projection operators read in
  non local Contribution for L=           2  read in
    real space projection operators read in
  non local Contribution for L=           2  read in
    real space projection operators read in
    PAW grid and wavefunctions read in
 
   number of l-projection  operators is LMAX  =           6
   number of lm-projection operators is LMMAX =          18
 
  PAW Si_GW 04May2012                   :
 energy of atom  1       EATOM= -103.0669
 kinetic energy error for atom=    0.0012 (will be added to EATOM!!)
 
 
 POSCAR: cd:
  positions in direct lattice
  velocities in cartesian coordinates
 exchange correlation table for  LEXCH =        8
   RHO(1)=    0.500       N(1)  =     2000
   RHO(2)=  100.500       N(2)  =     4000
 


--------------------------------------------------------------------------------------------------------


 ion  position               nearest neighbor table
   1  0.000  0.000  0.000-   9 2.37  10 2.37  11 2.37  13 2.37
   2  0.500  0.000  0.000-   9 2.37  10 2.37  12 2.37  14 2.37
   3  0.000  0.500  0.000-   9 2.37  11 2.37  12 2.37  15 2.37
   4  0.500  0.500  0.000-  10 2.37  11 2.37  12 2.37  16 2.37
   5  0.000  0.000  0.500-   9 2.37  13 2.37  14 2.37  15 2.37
   6  0.500  0.000  0.500-  10 2.37  13 2.37  14 2.37  16 2.37
   7  0.000  0.500  0.500-  11 2.37  13 2.37  15 2.37  16 2.37
   8  0.500  0.500  0.500-  12 2.37  14 2.37  15 2.37  16 2.37
   9  0.125  0.125  0.125-   1 2.37   2 2.37   3 2.37   5 2.37
  10  0.625  0.125  0.125-   1 2.37   2 2.37   4 2.37   6 2.37
  11  0.125  0.625  0.125-   1 2.37   3 2.37   4 2.37   7 2.37
  12  0.625  0.625  0.125-   2 2.37   3 2.37   4 2.37   8 2.37
  13  0.125  0.125  0.625-   1 2.37   5 2.37   6 2.37   7 2.37
  14  0.625  0.125  0.625-   2 2.37   5 2.37   6 2.37   8 2.37
  15  0.125  0.625  0.625-   3 2.37   5 2.37   7 2.37   8 2.37
  16  0.625  0.625  0.625-   4 2.37   6 2.37   7 2.37   8 2.37
 

IMPORTANT INFORMATION: All symmetrisations will be switched off!
NOSYMM: (Re-)initialisation of all symmetry stuff for point group C_1.


----------------------------------------------------------------------------------------

                                     Primitive cell                                     

  volume of cell :     327.2832

  direct lattice vectors                    reciprocal lattice vectors
     5.469713400  5.469713400  0.000000000     0.091412468  0.091412468 -0.091412468
     0.000000000  5.469713400  5.469713400    -0.091412468  0.091412468  0.091412468
     5.469713400  0.000000000  5.469713400     0.091412468 -0.091412468  0.091412468

  length of vectors
     7.735342873  7.735342873  7.735342873     0.158331039  0.158331039  0.158331039

  position of ions in fractional coordinates (direct lattice)
     0.000000000  0.000000000  0.000000000
     0.500000000  0.000000000  1.000000000
     0.000000000  0.500000000  1.000000000
     0.500000000  0.500000000  1.000000000
     0.000000000  1.000000000  0.500000000
     0.500000000  0.000000000  0.500000000
     0.000000000  0.500000000  0.500000000
     0.500000000  0.500000000  0.500000000
     0.125000000  0.125000000  0.125000000
     0.625000000  0.125000000  0.125000000
     0.125000000  0.625000000  0.125000000
     0.625000000  0.625000000  0.125000000
     0.125000000  0.125000000  0.625000000
     0.625000000  0.125000000  0.625000000
     0.125000000  0.625000000  0.625000000
     0.625000000  0.625000000  0.625000000

  ion indices of the primitive-cell ions
   primitive index   ion index
                 1           1
                 2           2
                 3           3
                 4           4
                 5           5
                 6           6
                 7           7
                 8           8
                 9           9
                10          10
                11          11
                12          12
                13          13
                14          14
                15          15
                16          16

----------------------------------------------------------------------------------------

 
 
 KPOINTS: Automatic mesh                          

Automatic generation of k-mesh.
 Grid dimensions read from file:
 generate k-points for:    1    1    1

 Generating k-lattice:

  Cartesian coordinates                     Fractional coordinates (reciprocal lattice)
     0.091412468  0.091412468 -0.091412468     1.000000000  0.000000000  0.000000000
    -0.091412468  0.091412468  0.091412468     0.000000000  1.000000000 -0.000000000
     0.091412468 -0.091412468  0.091412468    -0.000000000 -0.000000000  1.000000000

  Length of vectors
     0.158331039  0.158331039  0.158331039

  Shift w.r.t. Gamma in fractional coordinates (k-lattice)
     0.000000000  0.000000000  0.000000000

 
 Subroutine IBZKPT returns following result:
 ===========================================
 
 Found      1 irreducible k-points:
 
 Following reciprocal coordinates:
            Coordinates               Weight
  0.000000  0.000000  0.000000      1.000000
 
 Following cartesian coordinates:
            Coordinates               Weight
  0.000000  0.000000  0.000000      1.000000
 
 WARNING: full set of k-points will be restricted to regular points only.

 
 Subroutine IBZKPT_HF returns following result:
 ==============================================
 
 Found      1 k-points in 1st BZ
 the following      1 k-points will be used (e.g. in the exchange kernel)
 Following reciprocal coordinates:   # in IRBZ
  0.000000  0.000000  0.000000    1.00000000   1 t-inv F
 -----------------------------------------------------------------------------
|                                                                             |
|           W    W    AA    RRRRR   N    N  II  N    N   GGGG   !!!           |
|           W    W   A  A   R    R  NN   N  II  NN   N  G    G  !!!           |
|           W    W  A    A  R    R  N N  N  II  N N  N  G       !!!           |
|           W WW W  AAAAAA  RRRRR   N  N N  II  N  N N  G  GGG   !            |
|           WW  WW  A    A  R   R   N   NN  II  N   NN  G    G                |
|           W    W  A    A  R    R  N    N  II  N    N   GGGG   !!!           |
|                                                                             |
|     The number of bands has been changed from the values supplied in        |
|     the INCAR file. This is a result of running the parallel version.       |
|     The orbitals not found in the WAVECAR file will be initialized with     |
|     random numbers, which is usually adequate. For correlated               |
|     calculations, however, you should redo the groundstate calculation.     |
|     I found NBANDS = 992. Now, NBANDS = 1152.                               |
|                                                                             |
 -----------------------------------------------------------------------------



--------------------------------------------------------------------------------------------------------




 Dimension of arrays:
   k-points           NKPTS =      1   k-points in BZ     NKDIM =      1   number of bands    NBANDS=   1152
   number of dos      NEDOS =    301   number of ions     NIONS =     16
   non local maximal  LDIM  =      6   non local SUM 2l+1 LMDIM =     18
   total plane-waves  NPLWV =  64000
   max r-space proj   IRMAX =      1   max aug-charges    IRDMAX=   9797
   dimension x,y,z NGX =    40 NGY =   40 NGZ =   40
   dimension x,y,z NGXF=    80 NGYF=   80 NGZF=   80
   support grid    NGXF=    80 NGYF=   80 NGZF=   80
   ions per type =              16
   lowest and highest band optimized NBANDSLOW=      -1 NBANDSHIGH=     992
   NGX,Y,Z   is equivalent  to a cutoff of   8.60,  8.60,  8.60 a.u.
   NGXF,Y,Z  is equivalent  to a cutoff of  17.19, 17.19, 17.19 a.u.

 SYSTEM =  unknown system                          
 POSCAR =  cd:                                     

 Startparameter for this run:
   NWRITE =      2    write-flag & timer
   PREC   = normal    normal or accurate (medium, high low for compatibility)
   ISTART =      1    job   : 0-new  1-cont  2-samecut
   ICHARG =      0    charge: 1-file 2-atom 10-const
   ISPIN  =      1    spin polarized calculation?
   LNONCOLLINEAR =      F non collinear calculations
   LSORBIT =      F    spin-orbit coupling
   INIWAV =      1    electr: 0-lowe 1-rand  2-diag
   LASPH  =      F    aspherical Exc in radial PAW
 Electronic Relaxation 1
   ENCUT  =  400.0 eV  29.40 Ry    5.42 a.u.  12.61 12.61 12.61*2*pi/ulx,y,z
   ENINI  =  400.0     initial cutoff
   ENAUG  =  413.0 eV  augmentation charge cutoff
   NELM   =      1;   NELMIN=  2; NELMDL=  0     # of ELM steps 
   EDIFF  = 0.1E-05   stopping-criterion for ELM
   LREAL  =      F    real-space projection
   NLSPLINE    = F    spline interpolate recip. space projectors
   LCOMPAT=      F    compatible to vasp.4.4
   GGA_COMPAT  = T    GGA compatible to vasp.4.4-vasp.4.6
   LMAXPAW     = -100 max onsite density
   LMAXMIX     =    2 max onsite mixed and CHGCAR
   VOSKOWN=      0    Vosko Wilk Nusair interpolation
   ROPT   =    0.00000
 Ionic relaxation
   EDIFFG = 0.1E-04   stopping-criterion for IOM
   NSW    =      0    number of steps for IOM
   NBLOCK =      1;   KBLOCK =      1    inner block; outer block 
   IBRION =     -1    ionic relax: 0-MD 1-quasi-New 2-CG
   NFREE  =      0    steps in history (QN), initial steepest desc. (CG)
   ISIF   =      0    stress and relaxation
   IWAVPR =     10    prediction:  0-non 1-charg 2-wave 3-comb
   ISYM   =     -1    0-nonsym 1-usesym 2-fastsym
   LCORR  =      T    Harris-Foulkes like correction to forces

   POTIM  = 0.5000    time-step for ionic-motion
   TEIN   =    0.0    initial temperature
   TEBEG  =    0.0;   TEEND  =   0.0 temperature during run
   SMASS  =  -3.00    Nose mass-parameter (am)
   estimated Nose-frequenzy (Omega)   =  0.10E-29 period in steps = 0.13E+47 mass=  -0.137E-26a.u.
   SCALEE = 1.0000    scale energy and forces
   NPACO  =    256;   APACO  = 10.0  distance and # of slots for P.C.
   PSTRESS=    0.0 pullay stress

  Mass of Ions in am
   POMASS =  28.09
  Ionic Valenz
   ZVAL   =   4.00
  Atomic Wigner-Seitz radii
   RWIGS  =  -1.00
  virtual crystal weights 
   VCA    =   1.00
   NELECT =      64.0000    total number of electrons
   NUPDOWN=      -1.0000    fix difference up-down

 DOS related values:
   EMIN   =  10.00;   EMAX   =-10.00  energy-range for DOS
   EFERMI =   0.00
   ISMEAR =     1;   SIGMA  =   0.00  broadening in eV -4-tet -1-fermi 0-gaus

 Electronic relaxation 2 (details)
   IALGO  =      4    algorithm
   LDIAG  =      T    sub-space diagonalisation (order eigenvalues)
   LSUBROT=      F    optimize rotation matrix (better conditioning)
   TURBO    =      0    0=normal 1=particle mesh
   IRESTART =      0    0=no restart 2=restart with 2 vectors
   NREBOOT  =      0    no. of reboots
   NMIN     =      0    reboot dimension
   EREF     =   0.00    reference energy to select bands
   IMIX   =      1    mixing-type and parameters
     AMIX     =   0.40;   BMIX     =  1.00
     AMIX_MAG =   1.60;   BMIX_MAG =  1.00
     AMIN     =   0.10
     WC   =   100.;   INIMIX=   1;  MIXPRE=   1;  MAXMIX= -45

 Intra band minimization:
   WEIMIN = 0.0000     energy-eigenvalue tresh-hold
   EBREAK =  0.22E-09  absolut break condition
   DEPER  =   0.30     relativ break condition  

   TIME   =   0.40     timestep for ELM

  volume/ion in A,a.u.               =      20.46       138.04
  Fermi-wavevector in a.u.,A,eV,Ry     =   0.950226  1.795667 12.285102  0.902929
  Thomas-Fermi vector in A             =   2.078583
 
 Write flags
   LWAVE        =      T    write WAVECAR
   LDOWNSAMPLE  =      F    k-point downsampling of WAVECAR
   LCHARG       =      T    write CHGCAR
   LVTOT        =      F    write LOCPOT, total local potential
   LVHAR        =      F    write LOCPOT, Hartree potential only
   LELF         =      F    write electronic localiz. function (ELF)
   LORBIT       =      0    0 simple, 1 ext, 2 COOP (PROOUT), +10 PAW based schemes


 Dipole corrections
   LMONO  =      F    monopole corrections only (constant potential shift)
   LDIPOL =      F    correct potential (dipole corrections)
   IDIPOL =      0    1-x, 2-y, 3-z, 4-all directions 
   EPSILON=  1.0000000 bulk dielectric constant

 Exchange correlation treatment:
   GGA     =    --    GGA type
   LEXCH   =     8    internal setting for exchange type
   LIBXC   =     F    Libxc                    
   VOSKOWN =     0    Vosko Wilk Nusair interpolation
   EXXOEP  =     0    0=HF, 1=EXX-LHF (local Hartree Fock) 2=EXX OEP
   LHFCALC =     T    Hartree Fock is set to
   LSYMGRAD=     F    symmetrize gradient (conserves proper symmetry)
   PRECFOCK=normal    Normal, Fast or Accurate (Low or Medium for compatibility)
   LRHFCALC=     F    long range Hartree Fock
   LRSCOR  =     F    long range correlation only (use DFT for short range part)
   LTHOMAS =     F    Thomas Fermi screening in HF
   LMODELHF=     F    short range full HF, long range fraction AEXX
   LFOCKACE=     T    use Adeptively-Compressed-Exchange operator
   ENCUT4O =  -1.0   cutoff for four orbital integrals eV
   LMAXFOCK=     4    L truncation for augmentation on plane wave grid
   LMAXFOCKAE=  -1    L truncation for all-electron charge restoration on plane wave grid
   NMAXFOCKAE=   1    number of basis functions for all-electron charge restoration
   LFOCKAEDFT=     F  apply the AE augmentation even for DFT
   NKREDX  =     1    reduce k-point grid by
   NKREDY  =     1    reduce k-point grid by
   NKREDZ  =     1    reduce k-point grid by
   SHIFTRED=     F    shift reduced grid of Gamma
   HFKIDENT=     F    idential grid for each k-point
   ODDONLY =     F    use only odd q-grid points
   EVENONLY=     F    use only even q-grid points
   HFALPHA =   -1.0000 decay constant for conv. correction
   MCALPHA =    0.0000 extent of test-charge in conv. correction in multipole expansion
   AEXX    =    1.0000 exact exchange contribution
   HFSCREEN=    0.0000 screening length (either q_TF or 0.3 A-1)
   HFSCREENC=   0.0000 screening length for correlation (either q_TF or 0.3 A-1)
   HFRCUT  =    0.0000 spherical cutoff for potential kernel
   ALDAX   =    0.0000 LDA exchange part
   AGGAX   =    0.0000 GGA exchange part
   ALDAC   =    0.0000 LDA correlation
   AGGAC   =    0.0000 GGA correlation
   ENCUTFOCK=  -1.0 apply spherical cutoff to Coloumb kernel
   NBANDSGWLOW=     1    first orbital included in HF term
   NBLOCK_FOCK=    64    blocking factor in FOCK_ACC

 Linear response parameters
   LEPSILON=     F    determine dielectric tensor
   LRPA    =     F    only Hartree local field effects (RPA)
   LNABLA  =     F    use nabla operator in PAW spheres
   LVEL    =     F    velocity operator in full k-point grid
   CSHIFT  =0.1000    complex shift for real part using Kramers Kronig
   OMEGAMAX=  -1.0    maximum frequency
   DEG_THRESHOLD= 0.2000000E-02 threshold for treating states as degnerate
   RTIME   =   -0.100 relaxation time in fs
  (WPLASMAI=    0.000 imaginary part of plasma frequency in eV, 0.658/RTIME)
   DFIELD  = 0.0000000 0.0000000 0.0000000 field for delta impulse in time
 
  Optional k-point grid parameters
   LKPOINTS_OPT  =     F    use optional k-point grid
   KPOINTS_OPT_MODE=     1    mode for optional k-point grid
 
 Orbital magnetization related:
   ORBITALMAG=     F  switch on orbital magnetization
   LCHIMAG   =     F  perturbation theory with respect to B field
   DQ        =  0.001000  dq finite difference perturbation B field
   LLRAUG    =     F  two centre corrections for induced B field



--------------------------------------------------------------------------------------------------------


 Static calculation
 charge density and potential will be updated during run
 non-spin polarized calculation
 Subrot: only subspace diagonalization (rotation)
    band-by band algorithm
 perform sub-space diagonalisation
    before iterative eigenvector-optimisation
 Kerker-like  mixing scheme
 using additional bands         1120
 reciprocal scheme for non local part
 use partial core corrections
 calculate Harris-corrections to forces 
   (improved forces if not selfconsistent)
 use gradient corrections 
 use of overlap-Matrix (Vanderbilt PP)
 Methfessel and Paxton  Order N= 1 SIGMA  =   0.00


--------------------------------------------------------------------------------------------------------


  energy-cutoff  :      400.00
  volume of cell :      327.28
      direct lattice vectors                 reciprocal lattice vectors
     5.469713400  5.469713400  0.000000000     0.091412468  0.091412468 -0.091412468
     0.000000000  5.469713400  5.469713400    -0.091412468  0.091412468  0.091412468
     5.469713400  0.000000000  5.469713400     0.091412468 -0.091412468  0.091412468

  length of vectors
     7.735342873  7.735342873  7.735342873     0.158331039  0.158331039  0.158331039


 
 old parameters found on file WAVECAR:
  energy-cutoff  :      400.00
  volume of cell :      327.28
      direct lattice vectors                 reciprocal lattice vectors
     5.469713400  5.469713400  0.000000000     0.091412468  0.091412468 -0.091412468
     0.000000000  5.469713400  5.469713400    -0.091412468  0.091412468  0.091412468
     5.469713400  0.000000000  5.469713400     0.091412468 -0.091412468  0.091412468

  length of vectors

 
 k-points in units of 2pi/SCALE and weight: Automatic mesh                          
   0.00000000  0.00000000  0.00000000       1.000
 
 k-points in reciprocal lattice and weights: Automatic mesh                          
   0.00000000  0.00000000  0.00000000       1.000
 
 position of ions in fractional coordinates (direct lattice) 
   0.00000000  0.00000000  0.00000000
   0.50000000  0.00000000  0.00000000
   0.00000000  0.50000000  0.00000000
   0.50000000  0.50000000  0.00000000
   0.00000000  0.00000000  0.50000000
   0.50000000  0.00000000  0.50000000
   0.00000000  0.50000000  0.50000000
   0.50000000  0.50000000  0.50000000
   0.12500000  0.12500000  0.12500000
   0.62500000  0.12500000  0.12500000
   0.12500000  0.62500000  0.12500000
   0.62500000  0.62500000  0.12500000
   0.12500000  0.12500000  0.62500000
   0.62500000  0.12500000  0.62500000
   0.12500000  0.62500000  0.62500000
   0.62500000  0.62500000  0.62500000
 
 position of ions in cartesian coordinates  (Angst):
   0.00000000  0.00000000  0.00000000
   2.73485670  2.73485670  0.00000000
   0.00000000  2.73485670  2.73485670
   2.73485670  5.46971340  2.73485670
   2.73485670  0.00000000  2.73485670
   5.46971340  2.73485670  2.73485670
   2.73485670  2.73485670  5.46971340
   5.46971340  5.46971340  5.46971340
   1.36742835  1.36742835  1.36742835
   4.10228505  4.10228505  1.36742835
   1.36742835  4.10228505  4.10228505
   4.10228505  6.83714175  4.10228505
   4.10228505  1.36742835  4.10228505
   6.83714175  4.10228505  4.10228505
   4.10228505  4.10228505  6.83714175
   6.83714175  6.83714175  6.83714175
 


--------------------------------------------------------------------------------------------------------


 use serial FFT for orbitals x direction half grid
 k-point   1 :   0.0000 0.0000 0.0000  plane waves:    2981

 maximum and minimum number of plane-waves per node :      2981     2981

 maximum number of plane-waves:      2981
 maximum index in each direction: 
   IXMAX=   12   IYMAX=   12   IZMAX=   12
   IXMIN=    0   IYMIN=  -10   IZMIN=  -10


 serial   3D FFT for wavefunctions
 parallel 3D FFT for charge:
    minimum data exchange during FFTs selected (reduces bandwidth)

 
 Radii for the augmentation spheres in the non-local exchange
 for species   1 augmentation radius   1.405 (default was   1.124)
       energy cutoff for augmentation   1600.0
 Maximum index for augmentation-charges in exchange         2243
  SETUP_FOCK is finished

 total amount of memory used by VASP MPI-rank0    42922. kBytes
=======================================================================

   base      :      30000. kBytes
   nonl-proj :       1228. kBytes
   fftplans  :        558. kBytes
   grid      :       2897. kBytes
   one-center:        124. kBytes
   HF        :         64. kBytes
   nonlr-proj:       7895. kBytes
   wavefun   :        156. kBytes
 
     INWAV:  cpu time      0.5493: real time      0.5569
 charge density for first step will be calculated from the start-wavefunctions


--------------------------------------------------------------------------------------------------------


 Maximum index for augmentation-charges          499 (set IRDMAX)


--------------------------------------------------------------------------------------------------------


 initial charge from wavefunction
    FEWALD:  cpu time      0.0071: real time      0.0072


--------------------------------------- Iteration      1(   1)  ---------------------------------------


    POTLOK:  cpu time      0.2099: real time      0.2114
    SETDIJ:  cpu time      0.0204: real time      0.0207
    EDDIAG:  cpu time     30.9554: real time     31.0684
       DOS:  cpu time      0.0029: real time      0.0030
    --------------------------------------------
      LOOP:  cpu time     31.1887: real time     31.3035

 eigenvalue-minimisations  :     0
 total energy-change (2. order) :-0.1426617E+03  ( 0.0000000E+00)
 number of electron      63.9999976 magnetization 
 augmentation part       -3.3708692 magnetization 

 Free energy of the ion-electron system (eV)
  ---------------------------------------------------
  alpha Z        PSCENC =        47.65718222
  Ewald energy   TEWEN  =     -1815.23227814
  -Hartree energ DENC   =      -144.56998571
  -exchange      EXHF   =       484.95691339
  -V(xc)+E(xc)   XCENC  =         0.00000000
  PAW double counting   =      2195.64333684    -2199.54785618
  entropy T*S    EENTRO =         0.00000000
  eigenvalues    EBANDS =      -216.69713000
  atomic energy  EATOM  =      1505.12811154
  Solvation  Ediel_sol  =         0.00000000
  ---------------------------------------------------
  free energy    TOTEN  =      -142.66170604 eV

  energy without entropy =     -142.66170604  energy(sigma->0) =     -142.66170604
  exchange ACFDT corr.  =     -1402.77195180  see jH, gK, PRB 81, 115126


--------------------------------------------------------------------------------------------------------




 average (electrostatic) potential at core
  the test charge radii are     1.1243
  (the norm of the test charge is              1.0000)
       1 -50.1479       2 -50.1479       3 -50.1479       4 -50.1479       5 -50.1479
       6 -50.1479       7 -50.1479       8 -50.1479       9 -50.1479      10 -50.1479
      11 -50.1479      12 -50.1479      13 -50.1479      14 -50.1479      15 -50.1479
      16 -50.1479
 
 
 
 E-fermi :   2.5082     XC(G=0):   0.0000     alpha+bet :-11.3646

 Fermi energy:         2.5081876888

 k-point     1 :       0.0000    0.0000    0.0000
  band No.  band energies     occupation 
      1     -13.1048      2.00000
      2      -9.9444      2.00000
      3      -9.9444      2.00000
      4      -9.9444      2.00000
      5      -9.9444      2.00000
      6      -7.3477      2.00000
      7      -7.3477      2.00000
      8      -7.3477      2.00000
      9      -7.3477      2.00000
     10      -7.3477      2.00000
     11      -7.3477      2.00000
     12      -5.8567      2.00000
     13      -5.8567      2.00000
     14      -5.8567      2.00000
     15      -5.8567      2.00000
     16      -0.7379      2.00000
     17      -0.7379      2.00000
     18      -0.7379      2.00000
     19      -0.7379      2.00000
     20      -0.7379      2.00000
     21      -0.7379      2.00000
     22       1.1431      2.00000
     23       1.1431      2.00000
     24       1.1431      2.00000
     25       1.1431      2.00000
     26       1.1431      2.00000
     27       1.1431      2.00000
     28       1.1431      2.00000
     29       1.1431      2.00000
     30       2.4431      2.00000
     31       2.4431      2.00000
     32       2.4431      2.00000
     33      10.8221      0.00000
     34      10.8229      0.00000
     35      10.8245      0.00000
     36      10.8246      0.00000
     37      10.8252      0.00000
     38      10.8255      0.00000
     39      12.0209      0.00000
     40      12.0218      0.00000
     41      12.0225      0.00000
     42      12.0232      0.00000
     43      13.2619      0.00000
     44      13.2671      0.00000
     45      13.2686      0.00000
     46      14.0206      0.00000
     47      14.0234      0.00000
     48      14.0255      0.00000
     49      14.0261      0.00000
     50      14.0267      0.00000
     51      14.0278      0.00000
     52      14.0288      0.00000
     53      14.0317      0.00000
     54      14.7497      0.00000
     55      18.4156      0.00000
     56      18.4283      0.00000
     57      18.4516      0.00000
     58      18.4603      0.00000
     59      18.5116      0.00000
     60      19.0735      0.00000
     61      19.0789      0.00000
     62      22.4379      0.00000
     63      22.4417      0.00000
     64      22.4533      0.00000
     65      22.4599      0.00000
     66      22.4657      0.00000
     67      22.4687      0.00000
     68      22.4738      0.00000
     69      22.4909      0.00000
     70      22.5592      0.00000
     71      22.5632      0.00000
     72      22.5798      0.00000
     73      22.5834      0.00000
     74      22.5969      0.00000
     75      22.6004      0.00000
     76      22.6643      0.00000
     77      22.6708      0.00000
     78      22.6748      0.00000
     79      22.6834      0.00000
     80      22.6880      0.00000
     81      22.6922      0.00000
     82      22.7022      0.00000
     83      22.7501      0.00000
     84      22.7981      0.00000
     85      22.8454      0.00000
     86      22.8582      0.00000
     87      22.8623      0.00000
     88      22.8652      0.00000
     89      23.3433      0.00000
     90      23.3450      0.00000
     91      23.3456      0.00000
     92      23.3474      0.00000
     93      23.3513      0.00000
     94      23.3569      0.00000
     95      23.3591      0.00000
     96      23.3641      0.00000
     97      24.7497      0.00000
     98      24.7732      0.00000
     99      24.7773      0.00000
    100      24.7911      0.00000
    101      24.8125      0.00000
    102      24.8272      0.00000
    103      25.2124      0.00000
    104      25.2273      0.00000
    105      25.2406      0.00000
    106      25.2606      0.00000
    107      25.2623      0.00000
    108      25.2711      0.00000
    109      25.4954      0.00000
    110      25.5091      0.00000
    111      25.5175      0.00000
    112      25.5310      0.00000
    113      26.3463      0.00000
    114      31.2278      0.00000
    115      31.2668      0.00000
    116      31.3255      0.00000
    117      31.3937      0.00000
    118      31.4121      0.00000
    119      31.4708      0.00000
    120      31.6744      0.00000
    121      31.7503      0.00000
    122      31.8242      0.00000
    123      31.8491      0.00000
    124      31.9338      0.00000
    125      32.0350      0.00000
    126      32.3558      0.00000
    127      32.3951      0.00000
    128      32.4758      0.00000
    129      32.4927      0.00000
    130      32.6507      0.00000
    131      32.7042      0.00000
    132      32.7068      0.00000
    133      32.7229      0.00000
    134      32.7648      0.00000
    135      32.7986      0.00000
    136      32.8129      0.00000
    137      32.8420      0.00000
    138      32.8702      0.00000
    139      32.9292      0.00000
    140      33.8435      0.00000
    141      33.8673      0.00000
    142      33.8756      0.00000
    143      33.9110      0.00000
    144      33.9246      0.00000
    145      33.9577      0.00000
    146      34.3979      0.00000
    147      34.4686      0.00000
    148      34.5095      0.00000
    149      34.5340      0.00000
    150      34.5494      0.00000
    151      34.5855      0.00000
    152      34.6016      0.00000
    153      34.6108      0.00000
    154      35.4963      0.00000
    155      35.5067      0.00000
    156      35.5364      0.00000
    157      35.5466      0.00000
    158      35.5741      0.00000
    159      35.5943      0.00000
    160      35.6314      0.00000
    161      35.6474      0.00000
    162      37.1076      0.00000
    163      37.2056      0.00000
    164      37.3281      0.00000
    165      38.5823      0.00000
    166      38.6739      0.00000
    167      38.8027      0.00000
    168      38.9058      0.00000
    169      39.1969      0.00000
    170      39.2333      0.00000
    171      39.6671      0.00000
    172      39.7418      0.00000
    173      39.8724      0.00000
    174      40.4127      0.00000
    175      40.4308      0.00000
    176      40.4611      0.00000
    177      40.4687      0.00000
    178      40.4804      0.00000
    179      40.4989      0.00000
    180      40.5457      0.00000
    181      40.5528      0.00000
    182      40.5732      0.00000
    183      40.5830      0.00000
    184      40.6243      0.00000
    185      40.6493      0.00000
    186      40.6613      0.00000
    187      40.7004      0.00000
    188      40.7760      0.00000
    189      40.8498      0.00000
    190      40.9368      0.00000
    191      41.1347      0.00000
    192      41.7064      0.00000
    193      41.7151      0.00000
    194      41.7768      0.00000
    195      41.8118      0.00000
    196      41.8197      0.00000
    197      41.8691      0.00000
    198      41.8951      0.00000
    199      41.9038      0.00000
    200      42.4401      0.00000
    201      42.5976      0.00000
    202      42.8158      0.00000
    203      43.7930      0.00000
    204      43.8041      0.00000
    205      43.8718      0.00000
    206      43.9982      0.00000
    207      44.0332      0.00000
    208      44.2365      0.00000
    209      44.6588      0.00000
    210      44.6895      0.00000
    211      44.6954      0.00000
    212      44.7091      0.00000
    213      46.7658      0.00000
    214      46.9498      0.00000
    215      46.9850      0.00000
    216      47.0466      0.00000
    217      47.1021      0.00000
    218      47.1434      0.00000
    219      47.1916      0.00000
    220      47.2279      0.00000
    221      47.2384      0.00000
    222      47.2450      0.00000
    223      47.2613      0.00000
    224      47.2775      0.00000
    225      47.3633      0.00000
    226      47.3773      0.00000
    227      47.4190      0.00000
    228      47.4258      0.00000
    229      47.8087      0.00000
    230      47.8366      0.00000
    231      47.9379      0.00000
    232      47.9568      0.00000
    233      47.9792      0.00000
    234      48.0457      0.00000
    235      48.2116      0.00000
    236      48.2556      0.00000
    237      48.3681      0.00000
    238      48.4597      0.00000
    239      48.5059      0.00000
    240      48.5200      0.00000
    241      48.5445      0.00000
    242      48.6263      0.00000
    243      48.8895      0.00000
    244      48.9337      0.00000
    245      49.8218      0.00000
    246      49.8985      0.00000
    247      49.9279      0.00000
    248      50.0375      0.00000
    249      50.8386      0.00000
    250      50.9396      0.00000
    251      50.9594      0.00000
    252      51.0944      0.00000
    253      51.0985      0.00000
    254      51.1115      0.00000
    255      51.1758      0.00000
    256      51.2194      0.00000
    257      51.3555      0.00000
    258      51.3739      0.00000
    259      51.4698      0.00000
    260      51.4853      0.00000
    261      51.5166      0.00000
    262      51.9598      0.00000
    263      52.0623      0.00000
    264      52.1588      0.00000
    265      52.2006      0.00000
    266      52.3398      0.00000
    267      52.4213      0.00000
    268      52.7438      0.00000
    269      53.5751      0.00000
    270      53.6194      0.00000
    271      53.6296      0.00000
    272      53.6751      0.00000
    273      53.7638      0.00000
    274      53.7852      0.00000
    275      54.9584      0.00000
    276      55.2334      0.00000
    277      55.9854      0.00000
    278      56.0207      0.00000
    279      56.0520      0.00000
    280      56.1049      0.00000
    281      56.1715      0.00000
    282      56.2338      0.00000
    283      56.2502      0.00000
    284      56.3027      0.00000
    285      56.4051      0.00000
    286      56.4364      0.00000
    287      56.6696      0.00000
    288      56.9401      0.00000
    289      57.0076      0.00000
    290      57.1872      0.00000
    291      57.2978      0.00000
    292      57.4208      0.00000
    293      57.4351      0.00000
    294      57.4660      0.00000
    295      57.4751      0.00000
    296      57.4968      0.00000
    297      57.5015      0.00000
    298      57.5254      0.00000
    299      57.5321      0.00000
    300      57.6818      0.00000
    301      57.7122      0.00000
    302      57.7563      0.00000
    303      57.7913      0.00000
    304      57.8723      0.00000
    305      57.9246      0.00000
    306      58.2233      0.00000
    307      58.2908      0.00000
    308      58.3340      0.00000
    309      58.5357      0.00000
    310      58.7838      0.00000
    311      58.8040      0.00000
    312      58.8843      0.00000
    313      58.9520      0.00000
    314      58.9563      0.00000
    315      59.0423      0.00000
    316      59.0655      0.00000
    317      59.2220      0.00000
    318      59.2718      0.00000
    319      59.2863      0.00000
    320      59.3484      0.00000
    321      59.3733      0.00000
    322      59.3981      0.00000
    323      59.5449      0.00000
    324      59.6383      0.00000
    325      59.7268      0.00000
    326      60.3569      0.00000
    327      60.7707      0.00000
    328      61.6702      0.00000
    329      61.7529      0.00000
    330      61.9148      0.00000
    331      62.0835      0.00000
    332      62.4635      0.00000
    333      62.9517      0.00000
    334      62.9838      0.00000
    335      63.4315      0.00000
    336      63.5005      0.00000
    337      63.5892      0.00000
    338      63.6195      0.00000
    339      63.6227      0.00000
    340      63.6381      0.00000
    341      63.6882      0.00000
    342      63.7499      0.00000
    343      63.9566      0.00000
    344      64.1926      0.00000
    345      65.2008      0.00000
    346      65.2604      0.00000
    347      65.3806      0.00000
    348      65.4436      0.00000
    349      65.4538      0.00000
    350      65.4551      0.00000
    351      65.5216      0.00000
    352      65.5525      0.00000
    353      65.5971      0.00000
    354      65.6453      0.00000
    355      65.6472      0.00000
    356      65.8340      0.00000
    357      65.9054      0.00000
    358      65.9559      0.00000
    359      65.9603      0.00000
    360      66.0003      0.00000
    361      66.0114      0.00000
    362      66.0229      0.00000
    363      66.0749      0.00000
    364      66.1032      0.00000
    365      66.3664      0.00000
    366      66.5140      0.00000
    367      66.7156      0.00000
    368      66.9794      0.00000
    369      71.2724      0.00000
    370      71.3417      0.00000
    371      71.4836      0.00000
    372      71.5475      0.00000
    373      71.7800      0.00000
    374      71.8277      0.00000
    375      72.3008      0.00000
    376      72.3261      0.00000
    377      72.8999      0.00000
    378      73.0826      0.00000
    379      73.1103      0.00000
    380      73.1531      0.00000
    381      73.3179      0.00000
    382      73.5199      0.00000
    383      73.5883      0.00000
    384      73.6261      0.00000
    385      73.7526      0.00000
    386      73.8010      0.00000
    387      73.8301      0.00000
    388      73.9843      0.00000
    389      74.1351      0.00000
    390      74.2818      0.00000
    391      74.3331      0.00000
    392      74.3730      0.00000
    393      74.3878      0.00000
    394      74.4740      0.00000
    395      74.5996      0.00000
    396      74.7528      0.00000
    397      74.7582      0.00000
    398      74.8849      0.00000
    399      74.8858      0.00000
    400      74.9496      0.00000
    401      75.0749      0.00000
    402      75.1123      0.00000
    403      75.2375      0.00000
    404      75.2812      0.00000
    405      75.2884      0.00000
    406      75.3360      0.00000
    407      75.4297      0.00000
    408      75.4702      0.00000
    409      75.5382      0.00000
    410      75.6287      0.00000
    411      75.6338      0.00000
    412      75.6910      0.00000
    413      75.8363      0.00000
    414      75.8605      0.00000
    415      75.9109      0.00000
    416      75.9792      0.00000
    417      76.0260      0.00000
    418      76.0266      0.00000
    419      76.0801      0.00000
    420      76.1943      0.00000
    421      76.2048      0.00000
    422      76.2102      0.00000
    423      76.2772      0.00000
    424      76.3322      0.00000
    425      76.4616      0.00000
    426      76.5621      0.00000
    427      76.5679      0.00000
    428      76.7069      0.00000
    429      76.7864      0.00000
    430      76.8057      0.00000
    431      76.9344      0.00000
    432      77.1053      0.00000
    433      77.1639      0.00000
    434      77.4044      0.00000
    435      77.5910      0.00000
    436      77.6797      0.00000
    437      77.8118      0.00000
    438      77.8507      0.00000
    439      78.0960      0.00000
    440      78.1482      0.00000
    441      78.2644      0.00000
    442      78.3525      0.00000
    443      78.5908      0.00000
    444      78.8369      0.00000
    445      79.2147      0.00000
    446      79.3323      0.00000
    447      79.4311      0.00000
    448      79.4369      0.00000
    449      79.4863      0.00000
    450      79.5831      0.00000
    451      79.7621      0.00000
    452      79.7883      0.00000
    453      79.8796      0.00000
    454      79.9404      0.00000
    455      79.9612      0.00000
    456      80.0151      0.00000
    457      80.0540      0.00000
    458      80.1044      0.00000
    459      80.2333      0.00000
    460      80.2394      0.00000
    461      80.3118      0.00000
    462      80.5235      0.00000
    463      80.6848      0.00000
    464      80.6973      0.00000
    465      80.8252      0.00000
    466      81.1730      0.00000
    467      81.5961      0.00000
    468      81.6192      0.00000
    469      81.7411      0.00000
    470      81.8458      0.00000
    471      82.1260      0.00000
    472      82.1807      0.00000
    473      82.2991      0.00000
    474      82.4759      0.00000
    475      82.6027      0.00000
    476      82.8211      0.00000
    477      82.8253      0.00000
    478      83.1518      0.00000
    479      83.2770      0.00000
    480      83.3732      0.00000
    481      83.3866      0.00000
    482      83.5524      0.00000
    483      83.8065      0.00000
    484      83.9617      0.00000
    485      84.0370      0.00000
    486      84.1754      0.00000
    487      84.2429      0.00000
    488      84.3642      0.00000
    489      84.4861      0.00000
    490      84.5017      0.00000
    491      84.6232      0.00000
    492      84.6917      0.00000
    493      84.8958      0.00000
    494      85.0072      0.00000
    495      85.0658      0.00000
    496      85.3152      0.00000
    497      85.5531      0.00000
    498      85.6530      0.00000
    499      85.7690      0.00000
    500      86.0527      0.00000
    501      86.0956      0.00000
    502      86.1751      0.00000
    503      86.2571      0.00000
    504      86.4595      0.00000
    505      86.6578      0.00000
    506      86.7066      0.00000
    507      87.0344      0.00000
    508      87.1510      0.00000
    509      87.4714      0.00000
    510      88.0126      0.00000
    511      88.3526      0.00000
    512      89.9202      0.00000
    513      90.2901      0.00000
    514      90.3987      0.00000
    515      90.4762      0.00000
    516      90.6634      0.00000
    517      90.7402      0.00000
    518      90.7528      0.00000
    519      90.9638      0.00000
    520      90.9767      0.00000
    521      91.0096      0.00000
    522      91.1868      0.00000
    523      91.3233      0.00000
    524      91.4418      0.00000
    525      91.5386      0.00000
    526      91.5968      0.00000
    527      91.8105      0.00000
    528      91.8286      0.00000
    529      91.8823      0.00000
    530      91.9745      0.00000
    531      92.0109      0.00000
    532      92.1260      0.00000
    533      92.1351      0.00000
    534      92.2347      0.00000
    535      92.2739      0.00000
    536      92.2920      0.00000
    537      92.3899      0.00000
    538      92.4487      0.00000
    539      92.5345      0.00000
    540      92.7996      0.00000
    541      92.8685      0.00000
    542      92.9551      0.00000
    543      93.0860      0.00000
    544      93.1290      0.00000
    545      93.2667      0.00000
    546      93.3066      0.00000
    547      93.4388      0.00000
    548      93.4438      0.00000
    549      93.5017      0.00000
    550      93.5181      0.00000
    551      93.7391      0.00000
    552      93.7707      0.00000
    553      93.8111      0.00000
    554      93.8436      0.00000
    555      93.9456      0.00000
    556      94.1438      0.00000
    557      94.2057      0.00000
    558      94.2085      0.00000
    559      94.3094      0.00000
    560      94.3541      0.00000
    561      94.3984      0.00000
    562      94.4311      0.00000
    563      94.5475      0.00000
    564      94.6653      0.00000
    565      94.7058      0.00000
    566      94.7422      0.00000
    567      94.8277      0.00000
    568      94.9381      0.00000
    569      94.9990      0.00000
    570      95.1234      0.00000
    571      95.2401      0.00000
    572      95.2883      0.00000
    573      95.4077      0.00000
    574      95.4396      0.00000
    575      95.5106      0.00000
    576      95.5319      0.00000
    577      95.5494      0.00000
    578      95.8211      0.00000
    579      95.8316      0.00000
    580      95.9194      0.00000
    581      96.0182      0.00000
    582      96.0627      0.00000
    583      96.0679      0.00000
    584      96.1487      0.00000
    585      96.1636      0.00000
    586      96.2062      0.00000
    587      96.3233      0.00000
    588      96.3912      0.00000
    589      96.4900      0.00000
    590      96.5024      0.00000
    591      96.5542      0.00000
    592      96.6071      0.00000
    593      96.6538      0.00000
    594      96.8395      0.00000
    595      99.3843      0.00000
    596      99.6116      0.00000
    597      99.8749      0.00000
    598     100.0814      0.00000
    599     100.1854      0.00000
    600     100.2078      0.00000
    601     100.3210      0.00000
    602     100.7370      0.00000
    603     100.7824      0.00000
    604     100.8229      0.00000
    605     100.9272      0.00000
    606     101.0513      0.00000
    607     101.1161      0.00000
    608     101.2501      0.00000
    609     101.3030      0.00000
    610     101.4110      0.00000
    611     101.5432      0.00000
    612     101.5581      0.00000
    613     101.5809      0.00000
    614     101.7254      0.00000
    615     101.8998      0.00000
    616     102.0588      0.00000
    617     102.0656      0.00000
    618     102.3936      0.00000
    619     102.5160      0.00000
    620     102.8746      0.00000
    621     103.2082      0.00000
    622     103.3015      0.00000
    623     103.4397      0.00000
    624     103.4856      0.00000
    625     103.6538      0.00000
    626     103.6826      0.00000
    627     103.7662      0.00000
    628     103.9086      0.00000
    629     103.9503      0.00000
    630     103.9863      0.00000
    631     104.0682      0.00000
    632     104.1113      0.00000
    633     104.2166      0.00000
    634     104.4887      0.00000
    635     104.6697      0.00000
    636     104.8416      0.00000
    637     105.2738      0.00000
    638     105.3128      0.00000
    639     105.5942      0.00000
    640     105.6252      0.00000
    641     105.6947      0.00000
    642     105.8701      0.00000
    643     105.9251      0.00000
    644     106.0184      0.00000
    645     106.0965      0.00000
    646     106.2949      0.00000
    647     106.4540      0.00000
    648     106.4715      0.00000
    649     106.5157      0.00000
    650     106.6235      0.00000
    651     106.7655      0.00000
    652     106.8905      0.00000
    653     107.0561      0.00000
    654     107.0975      0.00000
    655     107.1943      0.00000
    656     107.2663      0.00000
    657     107.3461      0.00000
    658     107.4737      0.00000
    659     107.5157      0.00000
    660     107.5175      0.00000
    661     107.5937      0.00000
    662     107.6679      0.00000
    663     107.7625      0.00000
    664     107.9368      0.00000
    665     107.9409      0.00000
    666     108.0188      0.00000
    667     108.2928      0.00000
    668     108.3332      0.00000
    669     108.6140      0.00000
    670     108.7380      0.00000
    671     108.8912      0.00000
    672     108.9688      0.00000
    673     109.1861      0.00000
    674     109.2746      0.00000
    675     109.4286      0.00000
    676     109.9011      0.00000
    677     110.1643      0.00000
    678     110.1736      0.00000
    679     110.4775      0.00000
    680     110.4824      0.00000
    681     110.6358      0.00000
    682     110.7458      0.00000
    683     110.7578      0.00000
    684     110.9810      0.00000
    685     111.0922      0.00000
    686     111.1659      0.00000
    687     111.2657      0.00000
    688     111.3018      0.00000
    689     111.3578      0.00000
    690     111.6784      0.00000
    691     111.7156      0.00000
    692     112.1364      0.00000
    693     112.2438      0.00000
    694     112.3376      0.00000
    695     113.3129      0.00000
    696     113.3481      0.00000
    697     113.5899      0.00000
    698     113.8365      0.00000
    699     114.0731      0.00000
    700     114.1288      0.00000
    701     114.2264      0.00000
    702     114.5159      0.00000
    703     114.5647      0.00000
    704     114.5687      0.00000
    705     114.6438      0.00000
    706     114.6582      0.00000
    707     114.7097      0.00000
    708     114.8844      0.00000
    709     114.9543      0.00000
    710     115.0406      0.00000
    711     115.0729      0.00000
    712     115.1946      0.00000
    713     115.2395      0.00000
    714     115.3302      0.00000
    715     115.3658      0.00000
    716     115.6185      0.00000
    717     115.7013      0.00000
    718     116.1584      0.00000
    719     116.1978      0.00000
    720     116.3277      0.00000
    721     116.3708      0.00000
    722     116.4745      0.00000
    723     116.6916      0.00000
    724     116.9736      0.00000
    725     117.0133      0.00000
    726     117.0276      0.00000
    727     117.0933      0.00000
    728     117.1795      0.00000
    729     117.1831      0.00000
    730     117.2105      0.00000
    731     117.3257      0.00000
    732     117.4174      0.00000
    733     117.5718      0.00000
    734     117.5824      0.00000
    735     117.7564      0.00000
    736     117.7942      0.00000
    737     117.8781      0.00000
    738     117.9872      0.00000
    739     118.1163      0.00000
    740     118.1697      0.00000
    741     118.2374      0.00000
    742     118.4694      0.00000
    743     118.6603      0.00000
    744     118.7278      0.00000
    745     118.7520      0.00000
    746     118.9291      0.00000
    747     118.9776      0.00000
    748     119.0773      0.00000
    749     119.2202      0.00000
    750     119.2674      0.00000
    751     119.3046      0.00000
    752     119.4080      0.00000
    753     119.4793      0.00000
    754     119.5273      0.00000
    755     119.5652      0.00000
    756     119.6818      0.00000
    757     119.8185      0.00000
    758     119.8351      0.00000
    759     119.8377      0.00000
    760     119.8999      0.00000
    761     119.9294      0.00000
    762     119.9869      0.00000
    763     120.0811      0.00000
    764     120.1046      0.00000
    765     120.1595      0.00000
    766     120.5395      0.00000
    767     120.5788      0.00000
    768     120.6550      0.00000
    769     120.7856      0.00000
    770     120.8332      0.00000
    771     121.0527      0.00000
    772     121.2594      0.00000
    773     121.3404      0.00000
    774     121.4352      0.00000
    775     121.5898      0.00000
    776     121.6100      0.00000
    777     121.6446      0.00000
    778     121.8070      0.00000
    779     121.9462      0.00000
    780     122.0848      0.00000
    781     122.1250      0.00000
    782     122.2027      0.00000
    783     122.2905      0.00000
    784     122.3415      0.00000
    785     122.4796      0.00000
    786     122.6537      0.00000
    787     122.7882      0.00000
    788     122.9138      0.00000
    789     123.0549      0.00000
    790     123.3115      0.00000
    791     123.3700      0.00000
    792     123.4501      0.00000
    793     123.5139      0.00000
    794     123.5533      0.00000
    795     123.7648      0.00000
    796     123.8812      0.00000
    797     124.0565      0.00000
    798     124.0993      0.00000
    799     124.4181      0.00000
    800     124.6156      0.00000
    801     124.6640      0.00000
    802     124.7220      0.00000
    803     124.8581      0.00000
    804     124.9012      0.00000
    805     125.1322      0.00000
    806     125.4251      0.00000
    807     125.5154      0.00000
    808     125.7031      0.00000
    809     125.9594      0.00000
    810     126.0978      0.00000
    811     126.5226      0.00000
    812     126.7995      0.00000
    813     126.9546      0.00000
    814     127.6827      0.00000
    815     127.7161      0.00000
    816     128.1285      0.00000
    817     128.4283      0.00000
    818     128.9513      0.00000
    819     129.2548      0.00000
    820     129.4838      0.00000
    821     129.7410      0.00000
    822     129.8036      0.00000
    823     129.8081      0.00000
    824     130.0623      0.00000
    825     130.1236      0.00000
    826     130.1537      0.00000
    827     130.2740      0.00000
    828     130.4817      0.00000
    829     130.5519      0.00000
    830     130.7310      0.00000
    831     130.7697      0.00000
    832     130.8246      0.00000
    833     130.9552      0.00000
    834     131.0623      0.00000
    835     131.0669      0.00000
    836     131.1196      0.00000
    837     131.2219      0.00000
    838     131.2562      0.00000
    839     131.2887      0.00000
    840     131.4687      0.00000
    841     131.8331      0.00000
    842     131.9031      0.00000
    843     131.9708      0.00000
    844     132.0249      0.00000
    845     132.3475      0.00000
    846     132.3756      0.00000
    847     132.5509      0.00000
    848     132.6044      0.00000
    849     132.6707      0.00000
    850     132.7615      0.00000
    851     133.0158      0.00000
    852     133.2195      0.00000
    853     133.6315      0.00000
    854     133.6584      0.00000
    855     133.7088      0.00000
    856     134.0040      0.00000
    857     134.1609      0.00000
    858     134.2257      0.00000
    859     134.3941      0.00000
    860     135.3109      0.00000
    861     135.5790      0.00000
    862     136.3511      0.00000
    863     136.7114      0.00000
    864     136.8483      0.00000
    865     136.9768      0.00000
    866     137.1775      0.00000
    867     137.3581      0.00000
    868     137.3872      0.00000
    869     137.4242      0.00000
    870     137.5923      0.00000
    871     137.7618      0.00000
    872     137.8083      0.00000
    873     138.0199      0.00000
    874     138.1418      0.00000
    875     138.5302      0.00000
    876     138.6882      0.00000
    877     138.9614      0.00000
    878     139.0354      0.00000
    879     139.1065      0.00000
    880     139.1399      0.00000
    881     139.3914      0.00000
    882     139.4244      0.00000
    883     139.4977      0.00000
    884     139.6390      0.00000
    885     139.7792      0.00000
    886     139.8952      0.00000
    887     140.0027      0.00000
    888     140.3668      0.00000
    889     140.5249      0.00000
    890     140.5316      0.00000
    891     140.6158      0.00000
    892     140.6631      0.00000
    893     140.9542      0.00000
    894     141.0131      0.00000
    895     141.1186      0.00000
    896     141.1696      0.00000
    897     141.2240      0.00000
    898     141.3495      0.00000
    899     141.5140      0.00000
    900     141.5470      0.00000
    901     141.6859      0.00000
    902     141.7206      0.00000
    903     141.7993      0.00000
    904     141.9923      0.00000
    905     142.0994      0.00000
    906     142.4345      0.00000
    907     142.4887      0.00000
    908     142.9274      0.00000
    909     142.9621      0.00000
    910     143.3476      0.00000
    911     143.4112      0.00000
    912     143.9855      0.00000
    913     144.0539      0.00000
    914     144.3004      0.00000
    915     144.3036      0.00000
    916     144.7843      0.00000
    917     144.9368      0.00000
    918     145.1972      0.00000
    919     145.2987      0.00000
    920     145.5283      0.00000
    921     145.5821      0.00000
    922     145.8521      0.00000
    923     146.1712      0.00000
    924     146.2537      0.00000
    925     146.4129      0.00000
    926     146.5085      0.00000
    927     147.0307      0.00000
    928     147.5831      0.00000
    929     147.6188      0.00000
    930     147.8638      0.00000
    931     148.3634      0.00000
    932     148.4672      0.00000
    933     148.5691      0.00000
    934     148.8252      0.00000
    935     149.3849      0.00000
    936     149.4740      0.00000
    937     149.9379      0.00000
    938     150.0965      0.00000
    939     150.2039      0.00000
    940     150.4868      0.00000
    941     150.7891      0.00000
    942     151.5686      0.00000
    943     152.1463      0.00000
    944     152.2459      0.00000
    945     152.4264      0.00000
    946     152.7117      0.00000
    947     152.7829      0.00000
    948     153.0791      0.00000
    949     153.3235      0.00000
    950     153.5482      0.00000
    951     153.7015      0.00000
    952     154.0232      0.00000
    953     154.3248      0.00000
    954     154.4748      0.00000
    955     154.6403      0.00000
    956     154.9289      0.00000
    957     156.3435      0.00000
    958     156.4048      0.00000
    959     156.9438      0.00000
    960     157.0568      0.00000
    961     157.4129      0.00000
    962     157.5068      0.00000
    963     157.9248      0.00000
    964     159.2690      0.00000
    965     160.0991      0.00000
    966     160.5946      0.00000
    967     160.7529      0.00000
    968     160.7574      0.00000
    969     161.5254      0.00000
    970     161.5592      0.00000
    971     162.1467      0.00000
    972     162.3670      0.00000
    973     163.0787      0.00000
    974     163.6245      0.00000
    975     164.0124      0.00000
    976     164.5094      0.00000
    977     164.6091      0.00000
    978     166.8993      0.00000
    979     166.9685      0.00000
    980     167.1440      0.00000
    981     167.2210      0.00000
    982     167.4138      0.00000
    983     168.6526      0.00000
    984     168.8608      0.00000
    985     168.9458      0.00000
    986     169.3754      0.00000
    987     169.7579      0.00000
    988     169.8866      0.00000
    989     171.1656      0.00000
    990     171.2824      0.00000
    991     172.8897      0.00000
    992     173.1341      0.00000
    993     124.6959      0.00000
    994     125.4690      0.00000
    995     127.1972      0.00000
    996     128.9243      0.00000
    997     129.0782      0.00000
    998     129.1347      0.00000
    999     129.5972      0.00000
   1000     129.6513      0.00000
   1001     130.2190      0.00000
   1002     130.5134      0.00000
   1003     130.7052      0.00000
   1004     130.8192      0.00000
   1005     131.3244      0.00000
   1006     131.8131      0.00000
   1007     132.1638      0.00000
   1008     132.2578      0.00000
   1009     132.4069      0.00000
   1010     132.5334      0.00000
   1011     132.7231      0.00000
   1012     133.2531      0.00000
   1013     133.5582      0.00000
   1014     133.5879      0.00000
   1015     133.6829      0.00000
   1016     133.9367      0.00000
   1017     134.1391      0.00000
   1018     134.2171      0.00000
   1019     134.6217      0.00000
   1020     134.7899      0.00000
   1021     134.8021      0.00000
   1022     134.9986      0.00000
   1023     135.0111      0.00000
   1024     135.0796      0.00000
   1025     135.2079      0.00000
   1026     135.2468      0.00000
   1027     135.3195      0.00000
   1028     135.4684      0.00000
   1029     135.6256      0.00000
   1030     135.6434      0.00000
   1031     135.6931      0.00000
   1032     135.8244      0.00000
   1033     135.8706      0.00000
   1034     135.9367      0.00000
   1035     135.9710      0.00000
   1036     136.0936      0.00000
   1037     136.2228      0.00000
   1038     136.2840      0.00000
   1039     136.3219      0.00000
   1040     136.5826      0.00000
   1041     136.6215      0.00000
   1042     136.6577      0.00000
   1043     136.7271      0.00000
   1044     136.7994      0.00000
   1045     136.8752      0.00000
   1046     137.0708      0.00000
   1047     137.0915      0.00000
   1048     137.1655      0.00000
   1049     137.1818      0.00000
   1050     137.3807      0.00000
   1051     137.3969      0.00000
   1052     137.5003      0.00000
   1053     137.5065      0.00000
   1054     137.5769      0.00000
   1055     137.6117      0.00000
   1056     137.6153      0.00000
   1057     137.6304      0.00000
   1058     137.6370      0.00000
   1059     137.6821      0.00000
   1060     137.8830      0.00000
   1061     137.9407      0.00000
   1062     138.0423      0.00000
   1063     138.0929      0.00000
   1064     138.0994      0.00000
   1065     138.1108      0.00000
   1066     138.1301      0.00000
   1067     138.2712      0.00000
   1068     138.2800      0.00000
   1069     138.2815      0.00000
   1070     138.3214      0.00000
   1071     138.3680      0.00000
   1072     138.3845      0.00000
   1073     138.4341      0.00000
   1074     138.4626      0.00000
   1075     138.5844      0.00000
   1076     138.6557      0.00000
   1077     138.6945      0.00000
   1078     138.7201      0.00000
   1079     138.8519      0.00000
   1080     138.9471      0.00000
   1081     139.2049      0.00000
   1082     139.2435      0.00000
   1083     139.3007      0.00000
   1084     139.3088      0.00000
   1085     139.3544      0.00000
   1086     139.4909      0.00000
   1087     139.4969      0.00000
   1088     139.7024      0.00000
   1089     139.7803      0.00000
   1090     139.8975      0.00000
   1091     140.2993      0.00000
   1092     140.4735      0.00000
   1093     140.6316      0.00000
   1094     140.7124      0.00000
   1095     140.7372      0.00000
   1096     140.9238      0.00000
   1097     140.9940      0.00000
   1098     141.0411      0.00000
   1099     141.0948      0.00000
   1100     141.2127      0.00000
   1101     141.3162      0.00000
   1102     141.3977      0.00000
   1103     141.4117      0.00000
   1104     141.4737      0.00000
   1105     141.5474      0.00000
   1106     141.6379      0.00000
   1107     141.8486      0.00000
   1108     142.0911      0.00000
   1109     142.4242      0.00000
   1110     142.4616      0.00000
   1111     142.5145      0.00000
   1112     142.8044      0.00000
   1113     142.8724      0.00000
   1114     142.8819      0.00000
   1115     142.9199      0.00000
   1116     142.9803      0.00000
   1117     143.0667      0.00000
   1118     143.2058      0.00000
   1119     143.3075      0.00000
   1120     143.3157      0.00000
   1121     143.4861      0.00000
   1122     143.5720      0.00000
   1123     143.6278      0.00000
   1124     143.7211      0.00000
   1125     143.7555      0.00000
   1126     143.8172      0.00000
   1127     143.8829      0.00000
   1128     144.0892      0.00000
   1129     144.1939      0.00000
   1130     144.4859      0.00000
   1131     144.4965      0.00000
   1132     144.5865      0.00000
   1133     144.8063      0.00000
   1134     145.3574      0.00000
   1135     145.3953      0.00000
   1136     145.6179      0.00000
   1137     145.7056      0.00000
   1138     145.7819      0.00000
   1139     145.8461      0.00000
   1140     145.9749      0.00000
   1141     145.9919      0.00000
   1142     146.2924      0.00000
   1143     146.6459      0.00000
   1144     146.6538      0.00000
   1145     147.0924      0.00000
   1146     147.5877      0.00000
   1147     147.6664      0.00000
   1148     148.4423      0.00000
   1149     149.0072      0.00000
   1150     149.0975      0.00000
   1151     150.8181      0.00000
   1152     153.0104      0.00000


--------------------------------------------------------------------------------------------------------


 soft charge-density along one line, spin component           1
         0         1         2         3         4         5         6         7         8         9
 total charge-density along one line
 
 pseudopotential strength for first ion, spin component:           1
 14.416 -16.723  -0.000   0.000   0.000   0.000  -0.000  -0.000
-16.723  52.889  -0.000  -0.000  -0.000   0.000   0.000   0.000
 -0.000  -0.000   3.359   0.000   0.000  -9.833  -0.000  -0.000
  0.000  -0.000   0.000   3.359   0.000  -0.000  -9.833  -0.000
  0.000  -0.000   0.000   0.000   3.359  -0.000  -0.000  -9.833
  0.000   0.000  -9.833  -0.000  -0.000  31.350   0.000   0.000
 -0.000   0.000  -0.000  -9.833  -0.000   0.000  31.350   0.000
 -0.000   0.000  -0.000  -0.000  -9.833   0.000   0.000  31.350
  0.000   0.000   0.000  -0.007  -0.000  -0.000   0.012   0.000
  0.000   0.000   0.000  -0.000  -0.007  -0.000   0.000   0.012
 -0.000  -0.000  -0.000   0.000  -0.000   0.000  -0.000   0.000
  0.000   0.000  -0.007   0.000   0.000   0.012  -0.000  -0.000
 -0.000  -0.000  -0.000  -0.000   0.000   0.000   0.000  -0.000
 -0.000   0.000  -0.000   0.029   0.000   0.000  -0.074  -0.000
 -0.000   0.000  -0.000   0.000   0.029   0.000  -0.000  -0.074
  0.000  -0.000  -0.000  -0.000   0.000  -0.000   0.000  -0.000
 -0.000   0.000   0.029  -0.000  -0.000  -0.074   0.000   0.000
  0.000  -0.000  -0.000   0.000  -0.000  -0.000  -0.000   0.000
 total augmentation occupancy for first ion, spin component:           1
  1.355   0.047   0.000   0.000   0.000   0.000   0.000   0.000   0.000   0.000   0.000   0.000   0.000   0.000   0.000  -0.000
  0.047   0.002   0.000   0.000   0.000   0.000   0.000   0.000   0.000   0.000   0.000   0.000   0.000   0.000   0.000  -0.000
  0.000   0.000   1.394  -0.000  -0.000   0.057  -0.000  -0.000  -0.000  -0.000  -0.000   0.226  -0.000   0.000   0.000  -0.000
  0.000   0.000  -0.000   1.394  -0.000  -0.000   0.057  -0.000   0.226  -0.000   0.000   0.000  -0.000  -0.000   0.000   0.000
  0.000   0.000  -0.000  -0.000   1.394  -0.000  -0.000   0.057  -0.000   0.226  -0.000   0.000   0.000   0.000  -0.000  -0.000
  0.000   0.000   0.057  -0.000  -0.000   0.002  -0.000  -0.000  -0.000  -0.000  -0.000   0.009  -0.000   0.000   0.000  -0.000
  0.000   0.000  -0.000   0.057  -0.000  -0.000   0.002  -0.000   0.009  -0.000   0.000  -0.000  -0.000   0.000   0.000   0.000
  0.000   0.000  -0.000  -0.000   0.057  -0.000  -0.000   0.002  -0.000   0.009  -0.000  -0.000   0.000   0.000   0.000  -0.000
  0.000   0.000  -0.000   0.226  -0.000  -0.000   0.009  -0.000   0.040   0.000   0.000   0.000  -0.000   0.000   0.000   0.000
  0.000   0.000  -0.000  -0.000   0.226  -0.000  -0.000   0.009   0.000   0.040  -0.000   0.000   0.000   0.000   0.000  -0.000
  0.000   0.000  -0.000   0.000  -0.000  -0.000   0.000  -0.000   0.000  -0.000   0.002  -0.000   0.000   0.000  -0.000   0.000
  0.000   0.000   0.226   0.000   0.000   0.009  -0.000  -0.000   0.000   0.000  -0.000   0.040  -0.000   0.000   0.000  -0.000
  0.000   0.000  -0.000  -0.000   0.000  -0.000  -0.000   0.000  -0.000   0.000   0.000  -0.000   0.002  -0.000   0.000  -0.000
  0.000   0.000   0.000  -0.000   0.000   0.000   0.000   0.000   0.000   0.000   0.000   0.000  -0.000   0.000  -0.000   0.000
  0.000   0.000   0.000   0.000  -0.000   0.000   0.000   0.000   0.000   0.000  -0.000   0.000   0.000  -0.000   0.000  -0.000
 -0.000  -0.000  -0.000   0.000  -0.000  -0.000   0.000  -0.000   0.000  -0.000   0.000  -0.000  -0.000   0.000  -0.000   0.000
  0.000   0.000  -0.000   0.000   0.000   0.000   0.000   0.000   0.000   0.000  -0.000   0.000  -0.000  -0.000  -0.000  -0.000
 -0.000  -0.000  -0.000   0.000   0.000  -0.000   0.000   0.000   0.000   0.000  -0.000  -0.000   0.000  -0.000   0.000  -0.000


------------------------ aborting loop because EDIFF is reached ----------------------------------------


    CHARGE:  cpu time      0.0644: real time      0.0646
    FORLOC:  cpu time      0.0076: real time      0.0076
    FORHF :  cpu time      0.3142: real time      0.3152
    FORNL :  cpu time      0.0608: real time      0.0610
    FORCOR:  cpu time      0.2246: real time      0.2255
    FORHAR:  cpu time      0.0487: real time      0.0491
    MIXING:  cpu time      0.0005: real time      0.0005
    OFIELD:  cpu time      0.0000: real time      0.0002

 VOLUME and BASIS-vectors are now :
 -----------------------------------------------------------------------------
  energy-cutoff  :      400.00
  volume of cell :      327.28
      direct lattice vectors                 reciprocal lattice vectors
     5.469713400  5.469713400  0.000000000     0.091412468  0.091412468 -0.091412468
     0.000000000  5.469713400  5.469713400    -0.091412468  0.091412468  0.091412468
     5.469713400  0.000000000  5.469713400     0.091412468 -0.091412468  0.091412468

  length of vectors
     7.735342873  7.735342873  7.735342873     0.158331039  0.158331039  0.158331039


 FORCES acting on ions
    electron-ion (+dipol)            ewald-force                    non-local-force                 convergence-correction
 -----------------------------------------------------------------------------------------------
   -.528E-05 0.445E-05 -.645E-05   -.242E-13 -.329E-13 0.202E-13   0.319E-05 -.479E-05 0.320E-05   -.144E-05 0.210E-05 -.182E-05
   0.316E-05 -.624E-05 -.642E-05   -.246E-13 -.320E-13 0.175E-13   -.306E-05 0.407E-05 0.442E-05   0.181E-05 -.217E-05 -.216E-05
   -.540E-05 -.638E-05 0.440E-05   -.280E-13 -.329E-13 0.207E-13   0.342E-05 0.300E-05 -.479E-05   -.152E-05 -.195E-05 0.207E-05
   0.304E-05 0.415E-05 0.391E-05   -.249E-13 -.320E-13 0.213E-13   -.223E-05 -.363E-05 -.330E-05   0.130E-05 0.173E-05 0.161E-05
   0.304E-05 0.415E-05 0.391E-05   -.235E-13 -.278E-13 0.207E-13   -.223E-05 -.363E-05 -.330E-05   0.130E-05 0.173E-05 0.161E-05
   -.540E-05 -.638E-05 0.440E-05   -.249E-13 -.320E-13 0.213E-13   0.342E-05 0.300E-05 -.479E-05   -.152E-05 -.195E-05 0.207E-05
   0.316E-05 -.624E-05 -.642E-05   -.249E-13 -.320E-13 0.213E-13   -.306E-05 0.407E-05 0.442E-05   0.181E-05 -.217E-05 -.216E-05
   -.528E-05 0.445E-05 -.645E-05   -.249E-13 -.320E-13 0.213E-13   0.319E-05 -.479E-05 0.320E-05   -.144E-05 0.210E-05 -.182E-05
   0.968E-06 -.241E-05 0.418E-05   0.246E-13 0.334E-13 -.188E-13   -.203E-06 0.347E-05 -.243E-05   0.595E-07 -.193E-05 0.152E-05
   0.152E-05 0.442E-05 0.439E-05   0.237E-13 0.317E-13 -.170E-13   -.107E-05 -.291E-05 -.291E-05   -.107E-06 0.176E-05 0.163E-05
   0.952E-06 0.444E-05 -.223E-05   0.284E-13 0.329E-13 -.204E-13   -.202E-06 -.262E-05 0.326E-05   0.671E-07 0.167E-05 -.164E-05
   0.131E-05 -.233E-05 -.189E-05   0.254E-13 0.326E-13 -.205E-13   -.287E-06 0.221E-05 0.187E-05   0.192E-07 -.123E-05 -.113E-05
   0.131E-05 -.233E-05 -.189E-05   0.228E-13 0.271E-13 -.214E-13   -.287E-06 0.221E-05 0.187E-05   0.193E-07 -.123E-05 -.113E-05
   0.952E-06 0.444E-05 -.223E-05   0.243E-13 0.319E-13 -.216E-13   -.202E-06 -.262E-05 0.326E-05   0.671E-07 0.167E-05 -.164E-05
   0.152E-05 0.442E-05 0.439E-05   0.256E-13 0.322E-13 -.217E-13   -.107E-05 -.291E-05 -.291E-05   -.107E-06 0.176E-05 0.163E-05
   0.968E-06 -.241E-05 0.418E-05   0.243E-13 0.314E-13 -.226E-13   -.203E-06 0.348E-05 -.243E-05   0.595E-07 -.193E-05 0.152E-05
 -----------------------------------------------------------------------------------------------
   0.550E-06 0.181E-06 -.254E-06   -.549E-15 -.119E-15 0.145E-15   -.884E-06 -.237E-05 -.134E-05   0.364E-06 -.540E-07 0.135E-06
 
 
 POSITION                                       TOTAL-FORCE (eV/Angst)
 -----------------------------------------------------------------------------------
      0.00000      0.00000      0.00000        -0.000002      0.000002     -0.000003
      2.73486      2.73486      0.00000         0.000002     -0.000003     -0.000003
      0.00000      2.73486      2.73486        -0.000002     -0.000004      0.000002
      2.73486      5.46971      2.73486         0.000002      0.000002      0.000002
      2.73486      0.00000      2.73486         0.000002      0.000002      0.000002
      5.46971      2.73486      2.73486        -0.000002     -0.000004      0.000002
      2.73486      2.73486      5.46971         0.000002     -0.000003     -0.000003
      5.46971      5.46971      5.46971        -0.000002      0.000002     -0.000003
      1.36743      1.36743      1.36743         0.000000     -0.000001      0.000002
      4.10229      4.10229      1.36743        -0.000000      0.000002      0.000002
      1.36743      4.10229      4.10229        -0.000000      0.000002     -0.000001
      4.10229      6.83714      4.10229         0.000000     -0.000001     -0.000001
      4.10229      1.36743      4.10229         0.000000     -0.000001     -0.000001
      6.83714      4.10229      4.10229        -0.000000      0.000002     -0.000001
      4.10229      4.10229      6.83714        -0.000000      0.000002      0.000002
      6.83714      6.83714      6.83714         0.000000     -0.000001      0.000002
 -----------------------------------------------------------------------------------
    total drift:                               -0.000000     -0.000002     -0.000002


--------------------------------------------------------------------------------------------------------



  FREE ENERGIE OF THE ION-ELECTRON SYSTEM (eV)
  ---------------------------------------------------
  free  energy   TOTEN  =      -142.66170604 eV

  energy  without entropy=     -142.66170604  energy(sigma->0) =     -142.66170604
 


--------------------------------------------------------------------------------------------------------


    POTLOK:  cpu time      0.2244: real time      0.2254


--------------------------------------------------------------------------------------------------------


 writing wavefunctions
     LOOP+:  cpu time     38.9238: real time     39.0768
    4ORBIT:  cpu time      0.0000: real time      0.0000

 total amount of memory used by VASP MPI-rank0   180678. kBytes
=======================================================================

   base      :      30000. kBytes
   nonl-proj :       1228. kBytes
   fftplans  :        558. kBytes
   grid      :       2897. kBytes
   one-center:        124. kBytes
   HF        :         64. kBytes
   nonlr-proj:       7895. kBytes
   wavefun   :        156. kBytes
   fock_wrk  :     137756. kBytes
 
  
  
 General timing and accounting informations for this job:
 ========================================================
  
                  Total CPU time used (sec):       48.593
                            User time (sec):       28.657
                          System time (sec):       19.936
                         Elapsed time (sec):       49.231
  
                   Maximum memory used (kb):      448288.
                   Average memory used (kb):          N/A
  
                          Minor page faults:       173742
                          Major page faults:            0
                 Voluntary context switches:         1330
