 vasp.6.2.0 18Jan21 (build Nov 12 2021 22:59:13) gamma-only                     
  
 executed on             LinuxIFC date 2021.12.12  20:35:12
 running on  192 total cores
 distrk:  each k-point on  192 cores,    1 groups
 distr:  one band on NCORE=   1 cores,  192 groups


--------------------------------------------------------------------------------------------------------


 INCAR:
   ENCUT = 400
   SIGMA = 0.0001
   EDIFF = 1E-6
   LHFCALC = .TRUE.
   AEXX = 1.0
   ISYM = -1
   ALGO = sub
   NELM = 1
   NBANDS = 672
   NBANDSHIGH = 672

 POTCAR:    PAW Si_GW 04May2012                   
 -----------------------------------------------------------------------------
|                                                                             |
|           W    W    AA    RRRRR   N    N  II  N    N   GGGG   !!!           |
|           W    W   A  A   R    R  NN   N  II  NN   N  G    G  !!!           |
|           W    W  A    A  R    R  N N  N  II  N N  N  G       !!!           |
|           W WW W  AAAAAA  RRRRR   N  N N  II  N  N N  G  GGG   !            |
|           WW  WW  A    A  R   R   N   NN  II  N   NN  G    G                |
|           W    W  A    A  R    R  N    N  II  N    N   GGGG   !!!           |
|                                                                             |
|     For optimal performance we recommend to set                             |
|       NCORE = 2 up to number-of-cores-per-socket                            |
|     NCORE specifies how many cores store one orbital (NPAR=cpu/NCORE).      |
|     This setting can greatly improve the performance of VASP for DFT.       |
|     The default, NCORE=1 might be grossly inefficient on modern             |
|     multi-core architectures or massively parallel machines. Do your        |
|     own testing! More info at https://www.vasp.at/wiki/index.php/NCORE      |
|     Unfortunately you need to use the default for GW and RPA                |
|     calculations (for HF NCORE is supported but not extensively tested      |
|     yet).                                                                   |
|                                                                             |
 -----------------------------------------------------------------------------

 POTCAR:    PAW Si_GW 04May2012                   
   VRHFIN =Si: s2p2                                                                                 
   LEXCH  = PE                                                                                      
   EATOM  =   103.0669 eV,    7.5752 Ry                                                             
                                                                                                    
   TITEL  = PAW Si_GW 04May2012                                                                     
   LULTRA =        F    use ultrasoft PP ?                                                          
   IUNSCR =        1    unscreen: 0-lin 1-nonlin 2-no                                               
   RPACOR =    1.500    partial core radius                                                         
   POMASS =   28.085; ZVAL   =    4.000    mass and valenz                                          
   RCORE  =    1.900    outmost cutoff radius                                                       
   RWIGS  =    2.480; RWIGS  =    1.312    wigner-seitz radius (au A)                               
   ENMAX  =  245.345; ENMIN  =  184.009 eV                                                          
   ICORE  =        3    local potential                                                             
   LCOR   =        T    correct aug charges                                                         
   LPAW   =        T    paw PP                                                                      
   EAUG   =  412.952                                                                                
   DEXC   =    0.000                                                                                
   RMAX   =    1.950    core radius for proj-oper                                                   
   RAUG   =    1.300    factor for augmentation sphere                                              
   RDEP   =    1.993    radius for radial grids                                                     
   RDEPT  =    2.000    core radius for aug-charge                                                  
                                                                                                    
   Atomic configuration                                                                             
    7 entries                                                                                       
     n  l   j            E        occ.                                                              
     1  0  0.50     -1785.8828   2.0000                                                             
     2  0  0.50      -139.4969   2.0000                                                             
     2  1  1.50       -95.5546   6.0000                                                             
     3  0  0.50       -10.8127   2.0000                                                             
     3  1  0.50        -4.0811   2.0000                                                             
     3  2  1.50        -4.0817   0.0000                                                             
     4  3  2.50        -4.0817   0.0000                                                             
   Description                                                                                      
     l       E           TYP  RCUT    TYP  RCUT                                                     
     0    -10.8127223     23  1.900                                                                 
     0     95.2407820     23  1.900                                                                 
     1     -4.0811372     23  1.900                                                                 
     1     54.4233040     23  1.900                                                                 
     2     -8.1634956     23  1.900                                                                 
     2     81.6349560     23  1.900                                                                 
     3     27.2116520     23  1.900                                                                 
  local pseudopotential read in
  partial core-charges read in
  partial kinetic energy density read in
  kinetic energy density of atom read in
  atomic valenz-charges read in
  non local Contribution for L=           0  read in
    real space projection operators read in
  non local Contribution for L=           0  read in
    real space projection operators read in
  non local Contribution for L=           1  read in
    real space projection operators read in
  non local Contribution for L=           1  read in
    real space projection operators read in
  non local Contribution for L=           2  read in
    real space projection operators read in
  non local Contribution for L=           2  read in
    real space projection operators read in
    PAW grid and wavefunctions read in
 
   number of l-projection  operators is LMAX  =           6
   number of lm-projection operators is LMMAX =          18
 
  PAW Si_GW 04May2012                   :
 energy of atom  1       EATOM= -103.0669
 kinetic energy error for atom=    0.0012 (will be added to EATOM!!)
 
 
 POSCAR: cd:
  positions in direct lattice
  velocities in cartesian coordinates
 exchange correlation table for  LEXCH =        8
   RHO(1)=    0.500       N(1)  =     2000
   RHO(2)=  100.500       N(2)  =     4000
 


--------------------------------------------------------------------------------------------------------


 ion  position               nearest neighbor table
   1  0.000  0.000  0.000-   9 2.37  10 2.37  11 2.37  13 2.37
   2  0.500  0.000  0.000-   9 2.37  10 2.37  12 2.37  14 2.37
   3  0.000  0.500  0.000-   9 2.37  11 2.37  12 2.37  15 2.37
   4  0.500  0.500  0.000-  10 2.37  11 2.37  12 2.37  16 2.37
   5  0.000  0.000  0.500-   9 2.37  13 2.37  14 2.37  15 2.37
   6  0.500  0.000  0.500-  10 2.37  13 2.37  14 2.37  16 2.37
   7  0.000  0.500  0.500-  11 2.37  13 2.37  15 2.37  16 2.37
   8  0.500  0.500  0.500-  12 2.37  14 2.37  15 2.37  16 2.37
   9  0.125  0.125  0.125-   1 2.37   2 2.37   3 2.37   5 2.37
  10  0.625  0.125  0.125-   1 2.37   2 2.37   4 2.37   6 2.37
  11  0.125  0.625  0.125-   1 2.37   3 2.37   4 2.37   7 2.37
  12  0.625  0.625  0.125-   2 2.37   3 2.37   4 2.37   8 2.37
  13  0.125  0.125  0.625-   1 2.37   5 2.37   6 2.37   7 2.37
  14  0.625  0.125  0.625-   2 2.37   5 2.37   6 2.37   8 2.37
  15  0.125  0.625  0.625-   3 2.37   5 2.37   7 2.37   8 2.37
  16  0.625  0.625  0.625-   4 2.37   6 2.37   7 2.37   8 2.37
 

IMPORTANT INFORMATION: All symmetrisations will be switched off!
NOSYMM: (Re-)initialisation of all symmetry stuff for point group C_1.


----------------------------------------------------------------------------------------

                                     Primitive cell                                     

  volume of cell :     327.2832

  direct lattice vectors                    reciprocal lattice vectors
     5.469713400  5.469713400  0.000000000     0.091412468  0.091412468 -0.091412468
     0.000000000  5.469713400  5.469713400    -0.091412468  0.091412468  0.091412468
     5.469713400  0.000000000  5.469713400     0.091412468 -0.091412468  0.091412468

  length of vectors
     7.735342873  7.735342873  7.735342873     0.158331039  0.158331039  0.158331039

  position of ions in fractional coordinates (direct lattice)
     0.000000000  0.000000000  0.000000000
     0.500000000  0.000000000  1.000000000
     0.000000000  0.500000000  1.000000000
     0.500000000  0.500000000  1.000000000
     0.000000000  1.000000000  0.500000000
     0.500000000  0.000000000  0.500000000
     0.000000000  0.500000000  0.500000000
     0.500000000  0.500000000  0.500000000
     0.125000000  0.125000000  0.125000000
     0.625000000  0.125000000  0.125000000
     0.125000000  0.625000000  0.125000000
     0.625000000  0.625000000  0.125000000
     0.125000000  0.125000000  0.625000000
     0.625000000  0.125000000  0.625000000
     0.125000000  0.625000000  0.625000000
     0.625000000  0.625000000  0.625000000

  ion indices of the primitive-cell ions
   primitive index   ion index
                 1           1
                 2           2
                 3           3
                 4           4
                 5           5
                 6           6
                 7           7
                 8           8
                 9           9
                10          10
                11          11
                12          12
                13          13
                14          14
                15          15
                16          16

----------------------------------------------------------------------------------------

 
 
 KPOINTS: Automatic mesh                          

Automatic generation of k-mesh.
 Grid dimensions read from file:
 generate k-points for:    1    1    1

 Generating k-lattice:

  Cartesian coordinates                     Fractional coordinates (reciprocal lattice)
     0.091412468  0.091412468 -0.091412468     1.000000000  0.000000000  0.000000000
    -0.091412468  0.091412468  0.091412468     0.000000000  1.000000000 -0.000000000
     0.091412468 -0.091412468  0.091412468    -0.000000000 -0.000000000  1.000000000

  Length of vectors
     0.158331039  0.158331039  0.158331039

  Shift w.r.t. Gamma in fractional coordinates (k-lattice)
     0.000000000  0.000000000  0.000000000

 
 Subroutine IBZKPT returns following result:
 ===========================================
 
 Found      1 irreducible k-points:
 
 Following reciprocal coordinates:
            Coordinates               Weight
  0.000000  0.000000  0.000000      1.000000
 
 Following cartesian coordinates:
            Coordinates               Weight
  0.000000  0.000000  0.000000      1.000000
 
 WARNING: full set of k-points will be restricted to regular points only.

 
 Subroutine IBZKPT_HF returns following result:
 ==============================================
 
 Found      1 k-points in 1st BZ
 the following      1 k-points will be used (e.g. in the exchange kernel)
 Following reciprocal coordinates:   # in IRBZ
  0.000000  0.000000  0.000000    1.00000000   1 t-inv F
 -----------------------------------------------------------------------------
|                                                                             |
|           W    W    AA    RRRRR   N    N  II  N    N   GGGG   !!!           |
|           W    W   A  A   R    R  NN   N  II  NN   N  G    G  !!!           |
|           W    W  A    A  R    R  N N  N  II  N N  N  G       !!!           |
|           W WW W  AAAAAA  RRRRR   N  N N  II  N  N N  G  GGG   !            |
|           WW  WW  A    A  R   R   N   NN  II  N   NN  G    G                |
|           W    W  A    A  R    R  N    N  II  N    N   GGGG   !!!           |
|                                                                             |
|     The number of bands has been changed from the values supplied in        |
|     the INCAR file. This is a result of running the parallel version.       |
|     The orbitals not found in the WAVECAR file will be initialized with     |
|     random numbers, which is usually adequate. For correlated               |
|     calculations, however, you should redo the groundstate calculation.     |
|     I found NBANDS = 672. Now, NBANDS = 768.                                |
|                                                                             |
 -----------------------------------------------------------------------------



--------------------------------------------------------------------------------------------------------




 Dimension of arrays:
   k-points           NKPTS =      1   k-points in BZ     NKDIM =      1   number of bands    NBANDS=    768
   number of dos      NEDOS =    301   number of ions     NIONS =     16
   non local maximal  LDIM  =      6   non local SUM 2l+1 LMDIM =     18
   total plane-waves  NPLWV =  64000
   max r-space proj   IRMAX =      1   max aug-charges    IRDMAX=   9797
   dimension x,y,z NGX =    40 NGY =   40 NGZ =   40
   dimension x,y,z NGXF=    80 NGYF=   80 NGZF=   80
   support grid    NGXF=    80 NGYF=   80 NGZF=   80
   ions per type =              16
   lowest and highest band optimized NBANDSLOW=      -1 NBANDSHIGH=     672
   NGX,Y,Z   is equivalent  to a cutoff of   8.60,  8.60,  8.60 a.u.
   NGXF,Y,Z  is equivalent  to a cutoff of  17.19, 17.19, 17.19 a.u.

 SYSTEM =  unknown system                          
 POSCAR =  cd:                                     

 Startparameter for this run:
   NWRITE =      2    write-flag & timer
   PREC   = normal    normal or accurate (medium, high low for compatibility)
   ISTART =      1    job   : 0-new  1-cont  2-samecut
   ICHARG =      0    charge: 1-file 2-atom 10-const
   ISPIN  =      1    spin polarized calculation?
   LNONCOLLINEAR =      F non collinear calculations
   LSORBIT =      F    spin-orbit coupling
   INIWAV =      1    electr: 0-lowe 1-rand  2-diag
   LASPH  =      F    aspherical Exc in radial PAW
   METAGGA=      F    non-selfconsistent MetaGGA calc.

 Electronic Relaxation 1
   ENCUT  =  400.0 eV  29.40 Ry    5.42 a.u.  12.61 12.61 12.61*2*pi/ulx,y,z
   ENINI  =  400.0     initial cutoff
   ENAUG  =  413.0 eV  augmentation charge cutoff
   NELM   =      1;   NELMIN=  2; NELMDL=  0     # of ELM steps 
   EDIFF  = 0.1E-05   stopping-criterion for ELM
   LREAL  =      F    real-space projection
   NLSPLINE    = F    spline interpolate recip. space projectors
   LCOMPAT=      F    compatible to vasp.4.4
   GGA_COMPAT  = T    GGA compatible to vasp.4.4-vasp.4.6
   LMAXPAW     = -100 max onsite density
   LMAXMIX     =    2 max onsite mixed and CHGCAR
   VOSKOWN=      0    Vosko Wilk Nusair interpolation
   ROPT   =    0.00000
 Ionic relaxation
   EDIFFG = 0.1E-04   stopping-criterion for IOM
   NSW    =      0    number of steps for IOM
   NBLOCK =      1;   KBLOCK =      1    inner block; outer block 
   IBRION =     -1    ionic relax: 0-MD 1-quasi-New 2-CG
   NFREE  =      0    steps in history (QN), initial steepest desc. (CG)
   ISIF   =      0    stress and relaxation
   IWAVPR =     10    prediction:  0-non 1-charg 2-wave 3-comb
   ISYM   =     -1    0-nonsym 1-usesym 2-fastsym
   LCORR  =      T    Harris-Foulkes like correction to forces

   POTIM  = 0.5000    time-step for ionic-motion
   TEIN   =    0.0    initial temperature
   TEBEG  =    0.0;   TEEND  =   0.0 temperature during run
   SMASS  =  -3.00    Nose mass-parameter (am)
   estimated Nose-frequenzy (Omega)   =  0.10E-29 period in steps = 0.13E+47 mass=  -0.137E-26a.u.
   SCALEE = 1.0000    scale energy and forces
   NPACO  =    256;   APACO  = 16.0  distance and # of slots for P.C.
   PSTRESS=    0.0 pullay stress

  Mass of Ions in am
   POMASS =  28.09
  Ionic Valenz
   ZVAL   =   4.00
  Atomic Wigner-Seitz radii
   RWIGS  =  -1.00
  virtual crystal weights 
   VCA    =   1.00
   NELECT =      64.0000    total number of electrons
   NUPDOWN=      -1.0000    fix difference up-down

 DOS related values:
   EMIN   =  10.00;   EMAX   =-10.00  energy-range for DOS
   EFERMI =   0.00
   ISMEAR =     1;   SIGMA  =   0.00  broadening in eV -4-tet -1-fermi 0-gaus

 Electronic relaxation 2 (details)
   IALGO  =      4    algorithm
   LDIAG  =      T    sub-space diagonalisation (order eigenvalues)
   LSUBROT=      F    optimize rotation matrix (better conditioning)
   TURBO    =      0    0=normal 1=particle mesh
   IRESTART =      0    0=no restart 2=restart with 2 vectors
   NREBOOT  =      0    no. of reboots
   NMIN     =      0    reboot dimension
   EREF     =   0.00    reference energy to select bands
   IMIX   =      1    mixing-type and parameters
     AMIX     =   0.40;   BMIX     =  1.00
     AMIX_MAG =   1.60;   BMIX_MAG =  1.00
     AMIN     =   0.10
     WC   =   100.;   INIMIX=   1;  MIXPRE=   1;  MAXMIX= -45

 Intra band minimization:
   WEIMIN = 0.0000     energy-eigenvalue tresh-hold
   EBREAK =  0.33E-09  absolut break condition
   DEPER  =   0.30     relativ break condition  

   TIME   =   0.40     timestep for ELM

  volume/ion in A,a.u.               =      20.46       138.04
  Fermi-wavevector in a.u.,A,eV,Ry     =   0.950226  1.795667 12.285102  0.902929
  Thomas-Fermi vector in A             =   2.078583
 
 Write flags
   LWAVE        =      T    write WAVECAR
   LDOWNSAMPLE  =      F    k-point downsampling of WAVECAR
   LCHARG       =      T    write CHGCAR
   LVTOT        =      F    write LOCPOT, total local potential
   LVHAR        =      F    write LOCPOT, Hartree potential only
   LELF         =      F    write electronic localiz. function (ELF)
   LORBIT       =      0    0 simple, 1 ext, 2 COOP (PROOUT), +10 PAW based schemes


 Dipole corrections
   LMONO  =      F    monopole corrections only (constant potential shift)
   LDIPOL =      F    correct potential (dipole corrections)
   IDIPOL =      0    1-x, 2-y, 3-z, 4-all directions 
   EPSILON=  1.0000000 bulk dielectric constant

 Exchange correlation treatment:
   GGA     =    --    GGA type
   LEXCH   =     8    internal setting for exchange type
   VOSKOWN=      0    Vosko Wilk Nusair interpolation
   EXXOEP  =     0    0=HF, 1=EXX-LHF (local Hartree Fock) 2=EXX OEP
   LHFCALC =     T    Hartree Fock is set to
   LSYMGRAD=     F    symmetrize gradient (conserves proper symmetry)
   PRECFOCK=normal    Normal, Fast or Accurate (Low or Medium for compatibility)
   LRHFCALC=     F    long range Hartree Fock
   LRSCOR  =     F    long range correlation only (use DFT for short range part)
   LTHOMAS =     F    Thomas Fermi screening in HF
   LMODELHF=     F    short range full HF, long range fraction AEXX
   LFOCKACE=     T    use Adeptively-Compressed-Exchange operator
   ENCUT4O =  -1.0   cutoff for four orbital integrals eV
   LMAXFOCK=     4    L truncation for augmentation on plane wave grid
   LMAXFOCKAE=  -1    L truncation for all-electron charge restoration on plane wave grid
   NMAXFOCKAE=   1    number of basis functions for all-electron charge restoration
   LFOCKAEDFT=     F  apply the AE augmentation even for DFT
   NKREDX  =     1    reduce k-point grid by
   NKREDY  =     1    reduce k-point grid by
   NKREDZ  =     1    reduce k-point grid by
   SHIFTRED=     F    shift reduced grid of Gamma
   HFKIDENT=     F    idential grid for each k-point
   ODDONLY =     F    use only odd q-grid points
   EVENONLY=     F    use only even q-grid points
   HFALPHA =   -1.0000 decay constant for conv. correction
   MCALPHA =    0.0000 extent of test-charge in conv. correction in multipole expansion
   AEXX    =    1.0000 exact exchange contribution
   HFSCREEN=    0.0000 screening length (either q_TF or 0.3 A-1)
   HFSCREENC=   0.0000 screening length for correlation (either q_TF or 0.3 A-1)
   HFRCUT  =    0.0000 spherical cutoff for potential kernel
   ALDAX   =    0.0000 LDA exchange part
   AGGAX   =    0.0000 GGA exchange part
   ALDAC   =    0.0000 LDA correlation
   AGGAC   =    0.0000 GGA correlation
   ENCUTFOCK=  -1.0 apply spherical cutoff to Coloumb kernel
   NBANDSGWLOW=     1    first orbital included in HF term
   NBLOCK_FOCK=    64    blocking factor in FOCK_ACC
 Linear response parameters
   LEPSILON=     F    determine dielectric tensor
   LRPA    =     F    only Hartree local field effects (RPA)
   LNABLA  =     F    use nabla operator in PAW spheres
   LVEL    =     F    velocity operator in full k-point grid
   LINTERFAST=   F  fast interpolation
   KINTER  =     0    interpolate to denser k-point grid
   CSHIFT  =0.1000    complex shift for real part using Kramers Kronig
   OMEGAMAX=  -1.0    maximum frequency
   DEG_THRESHOLD= 0.2000000E-02 threshold for treating states as degnerate
   RTIME   =   -0.100 relaxation time in fs
  (WPLASMAI=    0.000 imaginary part of plasma frequency in eV, 0.658/RTIME)
   DFIELD  = 0.0000000 0.0000000 0.0000000 field for delta impulse in time
 
 Orbital magnetization related:
   ORBITALMAG=     F  switch on orbital magnetization
   LCHIMAG   =     F  perturbation theory with respect to B field
   DQ        =  0.001000  dq finite difference perturbation B field
   LLRAUG    =     F  two centre corrections for induced B field



--------------------------------------------------------------------------------------------------------


 Static calculation
 charge density and potential will be updated during run
 non-spin polarized calculation
 Subrot: only subspace diagonalization (rotation)
    band-by band algorithm
 perform sub-space diagonalisation
    before iterative eigenvector-optimisation
 Kerker-like  mixing scheme
 using additional bands          736
 reciprocal scheme for non local part
 use partial core corrections
 calculate Harris-corrections to forces 
   (improved forces if not selfconsistent)
 use gradient corrections 
 use of overlap-Matrix (Vanderbilt PP)
 Methfessel and Paxton  Order N= 1 SIGMA  =   0.00


--------------------------------------------------------------------------------------------------------


  energy-cutoff  :      400.00
  volume of cell :      327.28
      direct lattice vectors                 reciprocal lattice vectors
     5.469713400  5.469713400  0.000000000     0.091412468  0.091412468 -0.091412468
     0.000000000  5.469713400  5.469713400    -0.091412468  0.091412468  0.091412468
     5.469713400  0.000000000  5.469713400     0.091412468 -0.091412468  0.091412468

  length of vectors
     7.735342873  7.735342873  7.735342873     0.158331039  0.158331039  0.158331039


 
 old parameters found on file WAVECAR:
  energy-cutoff  :      400.00
  volume of cell :      327.28
      direct lattice vectors                 reciprocal lattice vectors
     5.469713400  5.469713400  0.000000000     0.091412468  0.091412468 -0.091412468
     0.000000000  5.469713400  5.469713400    -0.091412468  0.091412468  0.091412468
     5.469713400  0.000000000  5.469713400     0.091412468 -0.091412468  0.091412468

  length of vectors

 
 k-points in units of 2pi/SCALE and weight: Automatic mesh                          
   0.00000000  0.00000000  0.00000000       1.000
 
 k-points in reciprocal lattice and weights: Automatic mesh                          
   0.00000000  0.00000000  0.00000000       1.000
 
 position of ions in fractional coordinates (direct lattice) 
   0.00000000  0.00000000  0.00000000
   0.50000000  0.00000000  0.00000000
   0.00000000  0.50000000  0.00000000
   0.50000000  0.50000000  0.00000000
   0.00000000  0.00000000  0.50000000
   0.50000000  0.00000000  0.50000000
   0.00000000  0.50000000  0.50000000
   0.50000000  0.50000000  0.50000000
   0.12500000  0.12500000  0.12500000
   0.62500000  0.12500000  0.12500000
   0.12500000  0.62500000  0.12500000
   0.62500000  0.62500000  0.12500000
   0.12500000  0.12500000  0.62500000
   0.62500000  0.12500000  0.62500000
   0.12500000  0.62500000  0.62500000
   0.62500000  0.62500000  0.62500000
 
 position of ions in cartesian coordinates  (Angst):
   0.00000000  0.00000000  0.00000000
   2.73485670  2.73485670  0.00000000
   0.00000000  2.73485670  2.73485670
   2.73485670  5.46971340  2.73485670
   2.73485670  0.00000000  2.73485670
   5.46971340  2.73485670  2.73485670
   2.73485670  2.73485670  5.46971340
   5.46971340  5.46971340  5.46971340
   1.36742835  1.36742835  1.36742835
   4.10228505  4.10228505  1.36742835
   1.36742835  4.10228505  4.10228505
   4.10228505  6.83714175  4.10228505
   4.10228505  1.36742835  4.10228505
   6.83714175  4.10228505  4.10228505
   4.10228505  4.10228505  6.83714175
   6.83714175  6.83714175  6.83714175
 


--------------------------------------------------------------------------------------------------------


 use serial FFT for orbitals x direction half grid
 k-point   1 :   0.0000 0.0000 0.0000  plane waves:    2981

 maximum and minimum number of plane-waves per node :      2981     2981

 maximum number of plane-waves:      2981
 maximum index in each direction: 
   IXMAX=   12   IYMAX=   12   IZMAX=   12
   IXMIN=    0   IYMIN=  -10   IZMIN=  -10


 serial   3D FFT for wavefunctions
 parallel 3D FFT for charge:
    minimum data exchange during FFTs selected (reduces bandwidth)

 
 Radii for the augmentation spheres in the non-local exchange
 for species   1 augmentation radius   1.405 (default was   1.124)
       energy cutoff for augmentation   1600.0
 Maximum index for augmentation-charges in exchange         2243
  SETUP_FOCK is finished

 total amount of memory used by VASP MPI-rank0    42929. kBytes
=======================================================================

   base      :      30000. kBytes
   nonl-proj :       1228. kBytes
   fftplans  :        513. kBytes
   grid      :       2897. kBytes
   one-center:        124. kBytes
   HF        :         64. kBytes
   nonlr-proj:       7895. kBytes
   wavefun   :        208. kBytes
 
     INWAV:  cpu time    0.5988: real time    0.6059
 charge density for first step will be calculated from the start-wavefunctions


--------------------------------------------------------------------------------------------------------


 Maximum index for augmentation-charges          499 (set IRDMAX)


--------------------------------------------------------------------------------------------------------


 initial charge from wavefunction
    FEWALD:  cpu time    0.0026: real time    0.0026


--------------------------------------- Iteration      1(   1)  ---------------------------------------


    POTLOK:  cpu time    0.1286: real time    0.1306
    SETDIJ:  cpu time    0.0122: real time    0.0124
    EDDIAG:  cpu time   17.4918: real time   17.5361
       DOS:  cpu time    0.0015: real time    0.0017
    --------------------------------------------
      LOOP:  cpu time   17.6340: real time   17.6809

 eigenvalue-minimisations  :     0
 total energy-change (2. order) :-0.1426617E+03  ( 0.0000000E+00)
 number of electron      63.9999976 magnetization 
 augmentation part       -3.3708534 magnetization 

 Free energy of the ion-electron system (eV)
  ---------------------------------------------------
  alpha Z        PSCENC =        47.65718222
  Ewald energy   TEWEN  =     -1815.23227814
  -Hartree energ DENC   =      -144.56919708
  -exchange      EXHF   =       484.95641215
  -V(xc)+E(xc)   XCENC  =         0.00000000
  PAW double counting   =      2195.64478220    -2199.54931071
  entropy T*S    EENTRO =         0.00000000
  eigenvalues    EBANDS =      -216.69740822
  atomic energy  EATOM  =      1505.12811154
  Solvation  Ediel_sol  =         0.00000000
  ---------------------------------------------------
  free energy    TOTEN  =      -142.66170604 eV

  energy without entropy =     -142.66170604  energy(sigma->0) =     -142.66170604
  exchange ACFDT corr.  =     -1156.41390946  see jH, gK, PRB 81, 115126


--------------------------------------------------------------------------------------------------------




 average (electrostatic) potential at core
  the test charge radii are     1.1243
  (the norm of the test charge is              1.0000)
       1 -50.1479       2 -50.1479       3 -50.1479       4 -50.1479       5 -50.1479
       6 -50.1479       7 -50.1479       8 -50.1479       9 -50.1479      10 -50.1479
      11 -50.1479      12 -50.1479      13 -50.1479      14 -50.1479      15 -50.1479
      16 -50.1479
 
 
 
 E-fermi :   2.5385     XC(G=0):   0.0000     alpha+bet :-11.3646

 Fermi energy:         2.5384920478

 k-point     1 :       0.0000    0.0000    0.0000
  band No.  band energies     occupation 
      1     -13.1049      2.00000
      2      -9.9444      2.00000
      3      -9.9444      2.00000
      4      -9.9444      2.00000
      5      -9.9444      2.00000
      6      -7.3477      2.00000
      7      -7.3477      2.00000
      8      -7.3477      2.00000
      9      -7.3477      2.00000
     10      -7.3477      2.00000
     11      -7.3477      2.00000
     12      -5.8567      2.00000
     13      -5.8567      2.00000
     14      -5.8567      2.00000
     15      -5.8567      2.00000
     16      -0.7379      2.00000
     17      -0.7379      2.00000
     18      -0.7379      2.00000
     19      -0.7379      2.00000
     20      -0.7379      2.00000
     21      -0.7379      2.00000
     22       1.1431      2.00000
     23       1.1431      2.00000
     24       1.1431      2.00000
     25       1.1431      2.00000
     26       1.1431      2.00000
     27       1.1431      2.00000
     28       1.1431      2.00000
     29       1.1431      2.00000
     30       2.4431      2.00000
     31       2.4431      2.00000
     32       2.4431      2.00000
     33      10.8631      0.00000
     34      10.8644      0.00000
     35      10.8662      0.00000
     36      10.8674      0.00000
     37      10.8737      0.00000
     38      10.8782      0.00000
     39      12.0500      0.00000
     40      12.0517      0.00000
     41      12.0612      0.00000
     42      12.0646      0.00000
     43      13.3183      0.00000
     44      13.3204      0.00000
     45      13.3311      0.00000
     46      14.0633      0.00000
     47      14.0676      0.00000
     48      14.0705      0.00000
     49      14.0743      0.00000
     50      14.0797      0.00000
     51      14.0835      0.00000
     52      14.0870      0.00000
     53      14.0932      0.00000
     54      14.7603      0.00000
     55      18.8115      0.00000
     56      18.8410      0.00000
     57      18.8846      0.00000
     58      18.9173      0.00000
     59      18.9895      0.00000
     60      19.1833      0.00000
     61      19.2095      0.00000
     62      22.5363      0.00000
     63      22.5483      0.00000
     64      22.5597      0.00000
     65      22.5650      0.00000
     66      22.5733      0.00000
     67      22.5769      0.00000
     68      22.5878      0.00000
     69      22.5945      0.00000
     70      22.5971      0.00000
     71      22.6085      0.00000
     72      22.6192      0.00000
     73      22.6239      0.00000
     74      22.6258      0.00000
     75      22.6365      0.00000
     76      22.7451      0.00000
     77      22.7697      0.00000
     78      22.7732      0.00000
     79      22.7793      0.00000
     80      22.7873      0.00000
     81      22.7952      0.00000
     82      22.9021      0.00000
     83      22.9161      0.00000
     84      22.9848      0.00000
     85      23.0251      0.00000
     86      23.0361      0.00000
     87      23.0511      0.00000
     88      23.0824      0.00000
     89      23.4358      0.00000
     90      23.4371      0.00000
     91      23.4446      0.00000
     92      23.4583      0.00000
     93      23.4610      0.00000
     94      23.4625      0.00000
     95      23.4813      0.00000
     96      23.4909      0.00000
     97      24.9299      0.00000
     98      24.9340      0.00000
     99      24.9424      0.00000
    100      24.9489      0.00000
    101      24.9513      0.00000
    102      24.9578      0.00000
    103      25.3387      0.00000
    104      25.3471      0.00000
    105      25.3548      0.00000
    106      25.3624      0.00000
    107      25.3682      0.00000
    108      25.3820      0.00000
    109      25.6033      0.00000
    110      25.6291      0.00000
    111      25.6411      0.00000
    112      25.6462      0.00000
    113      26.5186      0.00000
    114      32.0822      0.00000
    115      32.0905      0.00000
    116      32.1147      0.00000
    117      32.1549      0.00000
    118      32.1743      0.00000
    119      32.2257      0.00000
    120      32.2657      0.00000
    121      32.2863      0.00000
    122      32.3437      0.00000
    123      32.3785      0.00000
    124      32.4315      0.00000
    125      32.4849      0.00000
    126      32.6484      0.00000
    127      32.6858      0.00000
    128      32.7529      0.00000
    129      32.8070      0.00000
    130      32.8358      0.00000
    131      32.8559      0.00000
    132      32.8683      0.00000
    133      32.8884      0.00000
    134      32.9436      0.00000
    135      33.0051      0.00000
    136      33.0184      0.00000
    137      33.0453      0.00000
    138      33.0603      0.00000
    139      33.0910      0.00000
    140      34.0831      0.00000
    141      34.1409      0.00000
    142      34.1503      0.00000
    143      34.2119      0.00000
    144      34.2379      0.00000
    145      34.2508      0.00000
    146      34.6576      0.00000
    147      34.6904      0.00000
    148      34.7419      0.00000
    149      34.7705      0.00000
    150      34.7935      0.00000
    151      34.8344      0.00000
    152      34.8787      0.00000
    153      34.9694      0.00000
    154      35.6513      0.00000
    155      35.6637      0.00000
    156      35.6745      0.00000
    157      35.7016      0.00000
    158      35.7192      0.00000
    159      35.7522      0.00000
    160      35.7922      0.00000
    161      35.8312      0.00000
    162      37.5090      0.00000
    163      37.6313      0.00000
    164      37.7801      0.00000
    165      39.2881      0.00000
    166      39.4750      0.00000
    167      40.5048      0.00000
    168      40.5596      0.00000
    169      40.5667      0.00000
    170      40.5847      0.00000
    171      40.6255      0.00000
    172      40.6260      0.00000
    173      40.6403      0.00000
    174      40.6489      0.00000
    175      40.6757      0.00000
    176      40.7258      0.00000
    177      40.8058      0.00000
    178      40.8943      0.00000
    179      40.9697      0.00000
    180      40.9842      0.00000
    181      41.0070      0.00000
    182      41.0474      0.00000
    183      41.0720      0.00000
    184      41.1398      0.00000
    185      41.3790      0.00000
    186      41.6720      0.00000
    187      42.2252      0.00000
    188      42.2366      0.00000
    189      42.2941      0.00000
    190      42.3126      0.00000
    191      42.3494      0.00000
    192      42.3537      0.00000
    193      42.3937      0.00000
    194      42.4209      0.00000
    195      42.4631      0.00000
    196      42.9335      0.00000
    197      42.9648      0.00000
    198      43.0090      0.00000
    199      43.7601      0.00000
    200      43.7918      0.00000
    201      44.0863      0.00000
    202      44.1201      0.00000
    203      44.1534      0.00000
    204      44.1658      0.00000
    205      44.1987      0.00000
    206      44.2747      0.00000
    207      44.7299      0.00000
    208      44.7384      0.00000
    209      44.7608      0.00000
    210      44.7855      0.00000
    211      45.8327      0.00000
    212      46.5877      0.00000
    213      47.9572      0.00000
    214      48.1420      0.00000
    215      48.1940      0.00000
    216      48.4208      0.00000
    217      48.6194      0.00000
    218      48.6704      0.00000
    219      48.7010      0.00000
    220      48.8448      0.00000
    221      49.1844      0.00000
    222      49.2307      0.00000
    223      49.2438      0.00000
    224      49.2977      0.00000
    225      49.4001      0.00000
    226      49.4796      0.00000
    227      49.5396      0.00000
    228      49.6206      0.00000
    229      49.6304      0.00000
    230      49.8462      0.00000
    231      50.0923      0.00000
    232      50.1931      0.00000
    233      50.3447      0.00000
    234      50.3613      0.00000
    235      50.4084      0.00000
    236      50.5266      0.00000
    237      50.6650      0.00000
    238      50.8687      0.00000
    239      51.2844      0.00000
    240      51.4996      0.00000
    241      51.7462      0.00000
    242      51.9439      0.00000
    243      52.0503      0.00000
    244      52.1828      0.00000
    245      52.2978      0.00000
    246      52.4499      0.00000
    247      52.5619      0.00000
    248      52.6384      0.00000
    249      52.7447      0.00000
    250      52.9407      0.00000
    251      52.9993      0.00000
    252      53.0078      0.00000
    253      53.1045      0.00000
    254      53.1598      0.00000
    255      53.3688      0.00000
    256      53.3955      0.00000
    257      53.6160      0.00000
    258      53.6175      0.00000
    259      53.8383      0.00000
    260      55.6419      0.00000
    261      55.8620      0.00000
    262      55.9794      0.00000
    263      56.0231      0.00000
    264      56.0756      0.00000
    265      56.1980      0.00000
    266      56.2030      0.00000
    267      56.4635      0.00000
    268      56.7314      0.00000
    269      56.8433      0.00000
    270      56.9095      0.00000
    271      56.9779      0.00000
    272      57.0517      0.00000
    273      57.1706      0.00000
    274      57.3053      0.00000
    275      57.6951      0.00000
    276      57.7631      0.00000
    277      58.5362      0.00000
    278      59.0347      0.00000
    279      59.2866      0.00000
    280      59.2909      0.00000
    281      59.5507      0.00000
    282      59.6435      0.00000
    283      59.7143      0.00000
    284      59.7816      0.00000
    285      59.8592      0.00000
    286      59.9611      0.00000
    287      60.0691      0.00000
    288      60.1725      0.00000
    289      60.2050      0.00000
    290      60.2427      0.00000
    291      60.2660      0.00000
    292      60.3745      0.00000
    293      60.4247      0.00000
    294      60.4629      0.00000
    295      60.5024      0.00000
    296      60.6220      0.00000
    297      60.6789      0.00000
    298      60.7436      0.00000
    299      60.8433      0.00000
    300      60.9075      0.00000
    301      60.9151      0.00000
    302      60.9214      0.00000
    303      60.9840      0.00000
    304      61.0832      0.00000
    305      61.2059      0.00000
    306      61.3158      0.00000
    307      61.4285      0.00000
    308      61.5246      0.00000
    309      61.6173      0.00000
    310      61.7856      0.00000
    311      61.9353      0.00000
    312      61.9766      0.00000
    313      62.2522      0.00000
    314      62.2896      0.00000
    315      62.4387      0.00000
    316      62.5401      0.00000
    317      62.6972      0.00000
    318      62.9854      0.00000
    319      63.0293      0.00000
    320      63.3853      0.00000
    321      63.5879      0.00000
    322      63.7439      0.00000
    323      63.8265      0.00000
    324      64.0508      0.00000
    325      64.4442      0.00000
    326      64.5073      0.00000
    327      64.5500      0.00000
    328      64.5701      0.00000
    329      64.6794      0.00000
    330      64.7569      0.00000
    331      64.9206      0.00000
    332      64.9265      0.00000
    333      65.1111      0.00000
    334      65.1479      0.00000
    335      65.4325      0.00000
    336      65.8656      0.00000
    337      66.1146      0.00000
    338      66.7998      0.00000
    339      66.9009      0.00000
    340      66.9466      0.00000
    341      67.0459      0.00000
    342      67.1959      0.00000
    343      67.3295      0.00000
    344      67.4904      0.00000
    345      67.5316      0.00000
    346      67.5472      0.00000
    347      67.5999      0.00000
    348      67.8759      0.00000
    349      67.9233      0.00000
    350      67.9674      0.00000
    351      68.0388      0.00000
    352      68.1706      0.00000
    353      68.1994      0.00000
    354      68.2140      0.00000
    355      68.3056      0.00000
    356      68.3296      0.00000
    357      68.4073      0.00000
    358      68.6969      0.00000
    359      68.7435      0.00000
    360      68.8190      0.00000
    361      69.1510      0.00000
    362      69.2076      0.00000
    363      69.2423      0.00000
    364      69.3415      0.00000
    365      69.6294      0.00000
    366      69.7469      0.00000
    367      69.9567      0.00000
    368      70.1551      0.00000
    369      72.5913      0.00000
    370      72.8350      0.00000
    371      72.9770      0.00000
    372      72.9889      0.00000
    373      73.5179      0.00000
    374      75.3726      0.00000
    375      75.4899      0.00000
    376      75.5293      0.00000
    377      75.5946      0.00000
    378      75.7975      0.00000
    379      75.9172      0.00000
    380      75.9658      0.00000
    381      76.1288      0.00000
    382      76.2902      0.00000
    383      76.3716      0.00000
    384      76.4634      0.00000
    385      76.5006      0.00000
    386      76.6326      0.00000
    387      76.6595      0.00000
    388      76.6929      0.00000
    389      76.7431      0.00000
    390      76.8235      0.00000
    391      76.9964      0.00000
    392      77.0966      0.00000
    393      77.1792      0.00000
    394      77.1881      0.00000
    395      77.2875      0.00000
    396      77.3747      0.00000
    397      77.3960      0.00000
    398      77.4560      0.00000
    399      77.5230      0.00000
    400      77.6307      0.00000
    401      77.8238      0.00000
    402      77.9948      0.00000
    403      78.1198      0.00000
    404      78.2311      0.00000
    405      78.2748      0.00000
    406      78.5135      0.00000
    407      78.6178      0.00000
    408      78.8257      0.00000
    409      79.0207      0.00000
    410      79.0991      0.00000
    411      79.1480      0.00000
    412      79.3499      0.00000
    413      79.4523      0.00000
    414      79.5480      0.00000
    415      79.5882      0.00000
    416      79.6968      0.00000
    417      79.7426      0.00000
    418      79.7739      0.00000
    419      79.8738      0.00000
    420      79.9792      0.00000
    421      80.0837      0.00000
    422      80.1821      0.00000
    423      80.2138      0.00000
    424      80.3025      0.00000
    425      80.4319      0.00000
    426      80.5786      0.00000
    427      80.7522      0.00000
    428      81.1050      0.00000
    429      81.2441      0.00000
    430      81.6049      0.00000
    431      81.6575      0.00000
    432      81.8679      0.00000
    433      82.3535      0.00000
    434      82.4527      0.00000
    435      82.6103      0.00000
    436      82.9220      0.00000
    437      82.9475      0.00000
    438      83.2634      0.00000
    439      83.5232      0.00000
    440      83.6579      0.00000
    441      83.7253      0.00000
    442      83.7503      0.00000
    443      83.8813      0.00000
    444      83.8885      0.00000
    445      83.9782      0.00000
    446      84.1388      0.00000
    447      84.2938      0.00000
    448      84.4290      0.00000
    449      84.4858      0.00000
    450      84.5108      0.00000
    451      84.7367      0.00000
    452      84.9518      0.00000
    453      85.0965      0.00000
    454      85.0967      0.00000
    455      85.1768      0.00000
    456      85.3389      0.00000
    457      85.4688      0.00000
    458      85.5288      0.00000
    459      85.5786      0.00000
    460      85.7759      0.00000
    461      85.7845      0.00000
    462      85.7873      0.00000
    463      85.9120      0.00000
    464      85.9439      0.00000
    465      86.0060      0.00000
    466      86.2602      0.00000
    467      86.2863      0.00000
    468      86.3242      0.00000
    469      86.4679      0.00000
    470      86.5565      0.00000
    471      86.6692      0.00000
    472      86.6948      0.00000
    473      86.7072      0.00000
    474      86.8694      0.00000
    475      86.9719      0.00000
    476      87.0082      0.00000
    477      87.0494      0.00000
    478      87.1392      0.00000
    479      87.2371      0.00000
    480      87.2750      0.00000
    481      87.4662      0.00000
    482      87.5448      0.00000
    483      87.5640      0.00000
    484      87.5872      0.00000
    485      87.7930      0.00000
    486      87.8017      0.00000
    487      87.8492      0.00000
    488      87.9618      0.00000
    489      88.1297      0.00000
    490      88.1309      0.00000
    491      88.2330      0.00000
    492      88.2338      0.00000
    493      88.2830      0.00000
    494      88.3787      0.00000
    495      88.5457      0.00000
    496      88.5821      0.00000
    497      88.7034      0.00000
    498      88.7335      0.00000
    499      88.9140      0.00000
    500      89.1765      0.00000
    501      89.2790      0.00000
    502      89.3158      0.00000
    503      89.4818      0.00000
    504      89.7696      0.00000
    505      89.9211      0.00000
    506      90.8574      0.00000
    507      91.1187      0.00000
    508      93.1003      0.00000
    509      93.1472      0.00000
    510      93.3842      0.00000
    511      93.8057      0.00000
    512      93.8612      0.00000
    513      93.9156      0.00000
    514      94.0592      0.00000
    515      94.3340      0.00000
    516      94.3721      0.00000
    517      94.5631      0.00000
    518      94.6907      0.00000
    519      94.9373      0.00000
    520      95.0069      0.00000
    521      95.2787      0.00000
    522      95.4129      0.00000
    523      95.8895      0.00000
    524      96.0708      0.00000
    525      96.3853      0.00000
    526      96.3983      0.00000
    527      96.4961      0.00000
    528      96.5069      0.00000
    529      96.5592      0.00000
    530      96.6112      0.00000
    531      96.6876      0.00000
    532      96.7752      0.00000
    533      96.7810      0.00000
    534      96.8152      0.00000
    535      96.8978      0.00000
    536      96.9993      0.00000
    537      97.0230      0.00000
    538      97.1420      0.00000
    539      97.2038      0.00000
    540      97.4039      0.00000
    541      97.5650      0.00000
    542      97.9134      0.00000
    543      98.1783      0.00000
    544      98.3034      0.00000
    545      98.4124      0.00000
    546      98.5842      0.00000
    547      98.7637      0.00000
    548      98.7898      0.00000
    549      98.8972      0.00000
    550      98.9094      0.00000
    551      98.9790      0.00000
    552      98.9794      0.00000
    553      99.0521      0.00000
    554      99.1971      0.00000
    555      99.2877      0.00000
    556      99.3202      0.00000
    557      99.3845      0.00000
    558      99.4546      0.00000
    559      99.4708      0.00000
    560      99.5155      0.00000
    561      99.6574      0.00000
    562      99.7119      0.00000
    563      99.7371      0.00000
    564      99.7891      0.00000
    565      99.8571      0.00000
    566      99.8882      0.00000
    567      99.9294      0.00000
    568     100.0023      0.00000
    569     100.1565      0.00000
    570     100.1919      0.00000
    571     100.3092      0.00000
    572     100.3486      0.00000
    573     100.3696      0.00000
    574     100.5262      0.00000
    575     100.6216      0.00000
    576     100.6698      0.00000
    577     100.6879      0.00000
    578     100.7539      0.00000
    579     100.7784      0.00000
    580     100.9320      0.00000
    581     101.4241      0.00000
    582     102.7663      0.00000
    583     103.0002      0.00000
    584     103.7567      0.00000
    585     103.8647      0.00000
    586     103.8887      0.00000
    587     104.2110      0.00000
    588     104.5272      0.00000
    589     105.5945      0.00000
    590     106.4504      0.00000
    591     106.4653      0.00000
    592     106.8566      0.00000
    593     107.1597      0.00000
    594     108.0638      0.00000
    595     108.3745      0.00000
    596     108.5328      0.00000
    597     108.9228      0.00000
    598     109.1194      0.00000
    599     109.3900      0.00000
    600     109.5292      0.00000
    601     110.9167      0.00000
    602     111.7169      0.00000
    603     112.3504      0.00000
    604     112.9840      0.00000
    605     112.9930      0.00000
    606     113.3451      0.00000
    607     113.4715      0.00000
    608     113.8805      0.00000
    609     113.9276      0.00000
    610     114.1632      0.00000
    611     114.4791      0.00000
    612     114.6728      0.00000
    613     115.5593      0.00000
    614     115.6131      0.00000
    615     116.1483      0.00000
    616     116.5659      0.00000
    617     116.8243      0.00000
    618     117.4220      0.00000
    619     117.4714      0.00000
    620     117.5806      0.00000
    621     117.9386      0.00000
    622     118.1615      0.00000
    623     118.4791      0.00000
    624     118.5292      0.00000
    625     118.7810      0.00000
    626     119.0937      0.00000
    627     119.1623      0.00000
    628     119.6077      0.00000
    629     120.0776      0.00000
    630     120.1113      0.00000
    631     120.3123      0.00000
    632     121.3969      0.00000
    633     122.2133      0.00000
    634     123.0758      0.00000
    635     123.7151      0.00000
    636     125.3123      0.00000
    637     125.3727      0.00000
    638     126.0690      0.00000
    639     126.7347      0.00000
    640     126.7372      0.00000
    641     127.2489      0.00000
    642     127.5824      0.00000
    643     127.6089      0.00000
    644     127.8701      0.00000
    645     127.9044      0.00000
    646     128.3631      0.00000
    647     128.5812      0.00000
    648     128.6021      0.00000
    649     128.9878      0.00000
    650     129.0522      0.00000
    651     129.2184      0.00000
    652     129.2881      0.00000
    653     129.5953      0.00000
    654     129.7888      0.00000
    655     129.8299      0.00000
    656     130.0260      0.00000
    657     130.1011      0.00000
    658     130.1811      0.00000
    659     130.5149      0.00000
    660     130.6051      0.00000
    661     130.6379      0.00000
    662     130.6685      0.00000
    663     130.9602      0.00000
    664     131.5274      0.00000
    665     131.7310      0.00000
    666     132.4706      0.00000
    667     132.5133      0.00000
    668     132.8973      0.00000
    669     133.2941      0.00000
    670     134.1213      0.00000
    671     134.4461      0.00000
    672     134.7063      0.00000
    673     102.9490      0.00000
    674     103.4405      0.00000
    675     103.8464      0.00000
    676     104.9697      0.00000
    677     105.1860      0.00000
    678     105.4065      0.00000
    679     106.4053      0.00000
    680     106.8304      0.00000
    681     106.9747      0.00000
    682     107.0357      0.00000
    683     107.2101      0.00000
    684     107.3644      0.00000
    685     107.4384      0.00000
    686     107.5906      0.00000
    687     107.6291      0.00000
    688     107.7148      0.00000
    689     107.7370      0.00000
    690     107.9641      0.00000
    691     108.4301      0.00000
    692     108.4586      0.00000
    693     108.6076      0.00000
    694     108.7342      0.00000
    695     108.9695      0.00000
    696     109.1061      0.00000
    697     109.1156      0.00000
    698     109.6469      0.00000
    699     109.8128      0.00000
    700     109.9249      0.00000
    701     110.2045      0.00000
    702     110.2349      0.00000
    703     110.2736      0.00000
    704     110.3162      0.00000
    705     110.4628      0.00000
    706     110.5942      0.00000
    707     110.6876      0.00000
    708     110.7289      0.00000
    709     110.7807      0.00000
    710     110.8372      0.00000
    711     110.8542      0.00000
    712     111.0467      0.00000
    713     111.0648      0.00000
    714     111.0671      0.00000
    715     111.0781      0.00000
    716     111.1259      0.00000
    717     111.2667      0.00000
    718     111.3267      0.00000
    719     111.3529      0.00000
    720     111.4331      0.00000
    721     111.4901      0.00000
    722     111.6463      0.00000
    723     111.6488      0.00000
    724     111.7355      0.00000
    725     111.7438      0.00000
    726     111.7846      0.00000
    727     111.9221      0.00000
    728     111.9274      0.00000
    729     112.1147      0.00000
    730     112.1204      0.00000
    731     112.1309      0.00000
    732     112.2283      0.00000
    733     112.3482      0.00000
    734     112.4193      0.00000
    735     112.4468      0.00000
    736     112.5843      0.00000
    737     112.7340      0.00000
    738     113.0352      0.00000
    739     113.1285      0.00000
    740     113.3405      0.00000
    741     113.5005      0.00000
    742     113.7620      0.00000
    743     113.8001      0.00000
    744     113.8395      0.00000
    745     113.8616      0.00000
    746     113.9738      0.00000
    747     114.0637      0.00000
    748     114.1529      0.00000
    749     114.2318      0.00000
    750     114.3071      0.00000
    751     114.5257      0.00000
    752     114.6739      0.00000
    753     114.8277      0.00000
    754     114.9648      0.00000
    755     115.0526      0.00000
    756     115.2375      0.00000
    757     115.6468      0.00000
    758     115.6946      0.00000
    759     115.7562      0.00000
    760     115.8675      0.00000
    761     115.9705      0.00000
    762     116.3127      0.00000
    763     116.3828      0.00000
    764     116.5176      0.00000
    765     117.0567      0.00000
    766     117.6432      0.00000
    767     118.8256      0.00000
    768     119.9297      0.00000


--------------------------------------------------------------------------------------------------------


 soft charge-density along one line, spin component           1
         0         1         2         3         4         5         6         7         8         9
 total charge-density along one line
 
 pseudopotential strength for first ion, spin component:           1
 14.416 -16.723   0.000   0.000   0.000  -0.000  -0.000  -0.000
-16.723  52.889  -0.000  -0.000  -0.000   0.000   0.000   0.000
  0.000  -0.000   3.359   0.000   0.000  -9.833  -0.000  -0.000
  0.000  -0.000   0.000   3.359   0.000  -0.000  -9.833  -0.000
  0.000  -0.000   0.000   0.000   3.359  -0.000  -0.000  -9.833
 -0.000   0.000  -9.833  -0.000  -0.000  31.350   0.000   0.000
 -0.000   0.000  -0.000  -9.833  -0.000   0.000  31.350   0.000
 -0.000   0.000  -0.000  -0.000  -9.833   0.000   0.000  31.350
  0.000   0.000   0.000  -0.007   0.000  -0.000   0.012  -0.000
  0.000   0.000   0.000   0.000  -0.007  -0.000  -0.000   0.012
 -0.000  -0.000  -0.000   0.000  -0.000   0.000  -0.000   0.000
  0.000   0.000  -0.007   0.000   0.000   0.012  -0.000  -0.000
 -0.000  -0.000  -0.000   0.000   0.000   0.000  -0.000  -0.000
 -0.000   0.000  -0.000   0.029  -0.000   0.000  -0.074   0.000
 -0.000   0.000  -0.000  -0.000   0.029   0.000   0.000  -0.074
  0.000  -0.000   0.000  -0.000   0.000  -0.000   0.000  -0.000
 -0.000   0.000   0.029  -0.000  -0.000  -0.074   0.000   0.000
  0.000  -0.000   0.000  -0.000  -0.000  -0.000   0.000   0.000
 total augmentation occupancy for first ion, spin component:           1
  1.355   0.047   0.000   0.000   0.000   0.000   0.000   0.000   0.000   0.000   0.000   0.000   0.000   0.000   0.000   0.000
  0.047   0.002   0.000   0.000   0.000   0.000   0.000   0.000   0.000   0.000   0.000   0.000   0.000   0.000   0.000   0.000
  0.000   0.000   1.394  -0.000  -0.000   0.057  -0.000  -0.000  -0.000   0.000  -0.000   0.226  -0.000   0.000   0.000  -0.000
  0.000   0.000  -0.000   1.394  -0.000  -0.000   0.057  -0.000   0.226  -0.000   0.000  -0.000  -0.000  -0.000   0.000   0.000
  0.000   0.000  -0.000  -0.000   1.394  -0.000  -0.000   0.057  -0.000   0.226  -0.000  -0.000   0.000   0.000  -0.000  -0.000
  0.000   0.000   0.057  -0.000  -0.000   0.002  -0.000  -0.000  -0.000  -0.000  -0.000   0.009  -0.000   0.000   0.000  -0.000
  0.000   0.000  -0.000   0.057  -0.000  -0.000   0.002  -0.000   0.009  -0.000   0.000  -0.000  -0.000   0.000   0.000   0.000
  0.000   0.000  -0.000  -0.000   0.057  -0.000  -0.000   0.002  -0.000   0.009  -0.000  -0.000   0.000   0.000   0.000  -0.000
  0.000   0.000  -0.000   0.226  -0.000  -0.000   0.009  -0.000   0.040   0.000   0.000   0.000  -0.000   0.000   0.000   0.000
  0.000   0.000   0.000  -0.000   0.226  -0.000  -0.000   0.009   0.000   0.040  -0.000   0.000   0.000   0.000   0.000  -0.000
  0.000   0.000  -0.000   0.000  -0.000  -0.000   0.000  -0.000   0.000  -0.000   0.002  -0.000  -0.000   0.000  -0.000   0.000
  0.000   0.000   0.226  -0.000  -0.000   0.009  -0.000  -0.000   0.000   0.000  -0.000   0.040  -0.000   0.000   0.000  -0.000
  0.000   0.000  -0.000  -0.000   0.000  -0.000  -0.000   0.000  -0.000   0.000  -0.000  -0.000   0.002  -0.000   0.000  -0.000
  0.000   0.000   0.000  -0.000   0.000   0.000   0.000   0.000   0.000   0.000   0.000   0.000  -0.000   0.000  -0.000   0.000
  0.000   0.000   0.000   0.000  -0.000   0.000   0.000   0.000   0.000   0.000  -0.000   0.000   0.000  -0.000   0.000  -0.000
  0.000   0.000  -0.000   0.000  -0.000  -0.000   0.000  -0.000   0.000  -0.000   0.000  -0.000  -0.000   0.000  -0.000   0.000
  0.000   0.000  -0.000   0.000   0.000   0.000   0.000   0.000   0.000   0.000  -0.000   0.000  -0.000  -0.000  -0.000  -0.000
  0.000   0.000  -0.000  -0.000   0.000  -0.000  -0.000   0.000   0.000   0.000  -0.000  -0.000   0.000  -0.000   0.000  -0.000


------------------------ aborting loop because EDIFF is reached ----------------------------------------


    CHARGE:  cpu time    0.0216: real time    0.0217
    FORLOC:  cpu time    0.0026: real time    0.0026
    FORHF :  cpu time    0.2610: real time    0.2623
    FORNL :  cpu time    0.0579: real time    0.0583
    FORCOR:  cpu time    0.1582: real time    0.1587
    FORHAR:  cpu time    0.0293: real time    0.0295
    MIXING:  cpu time    0.0000: real time    0.0000
    OFIELD:  cpu time    0.0001: real time    0.0002

 VOLUME and BASIS-vectors are now :
 -----------------------------------------------------------------------------
  energy-cutoff  :      400.00
  volume of cell :      327.28
      direct lattice vectors                 reciprocal lattice vectors
     5.469713400  5.469713400  0.000000000     0.091412468  0.091412468 -0.091412468
     0.000000000  5.469713400  5.469713400    -0.091412468  0.091412468  0.091412468
     5.469713400  0.000000000  5.469713400     0.091412468 -0.091412468  0.091412468

  length of vectors
     7.735342873  7.735342873  7.735342873     0.158331039  0.158331039  0.158331039


 FORCES acting on ions
    electron-ion (+dipol)            ewald-force                    non-local-force                 convergence-correction
 -----------------------------------------------------------------------------------------------
   -.257E-05 -.141E-05 -.142E-05   -.242E-13 -.329E-13 0.202E-13   0.808E-05 0.193E-05 0.732E-07   -.243E-05 0.148E-06 0.114E-05
   -.278E-05 -.252E-05 -.599E-06   -.246E-13 -.320E-13 0.175E-13   0.371E-05 0.214E-05 -.306E-06   0.523E-06 0.132E-05 -.268E-06
   -.677E-06 -.110E-05 -.110E-06   -.280E-13 -.329E-13 0.207E-13   0.104E-05 0.166E-05 -.186E-05   -.136E-05 -.336E-06 0.412E-06
   -.166E-05 -.220E-05 -.919E-06   -.249E-13 -.320E-13 0.213E-13   -.758E-06 0.372E-05 0.346E-05   0.190E-05 -.577E-07 -.204E-05
   -.102E-05 -.159E-05 -.269E-05   -.235E-13 -.278E-13 0.207E-13   -.492E-06 0.407E-05 0.373E-05   0.651E-06 -.105E-05 0.472E-06
   -.163E-05 -.200E-05 -.700E-06   -.249E-13 -.320E-13 0.213E-13   0.198E-05 0.244E-05 -.611E-06   -.556E-06 0.851E-06 0.481E-06
   -.210E-05 -.678E-06 -.105E-05   -.249E-13 -.320E-13 0.213E-13   0.147E-05 0.151E-05 0.130E-06   0.699E-06 -.120E-05 0.407E-06
   -.361E-05 -.119E-05 -.783E-06   -.249E-13 -.320E-13 0.213E-13   0.530E-05 0.171E-05 0.924E-06   0.292E-06 0.299E-07 -.281E-06
   0.212E-05 0.137E-05 0.302E-06   0.246E-13 0.334E-13 -.188E-13   -.141E-05 -.196E-05 -.643E-06   -.534E-06 -.142E-06 0.141E-05
   0.178E-05 0.986E-06 0.238E-05   0.237E-13 0.317E-13 -.170E-13   -.160E-05 -.319E-05 -.474E-05   -.943E-06 0.206E-05 0.873E-06
   0.229E-05 0.217E-05 0.230E-05   0.284E-13 0.329E-13 -.204E-13   -.299E-05 -.246E-05 -.202E-05   -.545E-07 -.111E-05 -.138E-05
   0.113E-05 0.190E-05 0.250E-05   0.254E-13 0.326E-13 -.205E-13   -.785E-06 -.416E-05 -.233E-06   0.443E-06 0.533E-06 -.233E-05
   0.197E-05 0.306E-05 0.136E-05   0.228E-13 0.271E-13 -.214E-13   -.631E-06 -.556E-05 -.199E-05   -.846E-06 -.420E-06 0.197E-06
   0.105E-05 0.218E-05 0.201E-05   0.243E-13 0.319E-13 -.216E-13   -.141E-05 -.550E-05 -.175E-05   0.945E-06 0.393E-06 -.105E-05
   0.132E-05 0.298E-05 0.276E-05   0.256E-13 0.322E-13 -.217E-13   0.240E-06 -.442E-05 -.852E-05   -.799E-06 -.369E-06 0.213E-05
   0.888E-06 0.140E-05 0.194E-05   0.243E-13 0.314E-13 -.226E-13   -.263E-05 -.119E-05 -.324E-05   0.189E-05 -.502E-06 0.240E-06
 -----------------------------------------------------------------------------------------------
   -.351E-05 0.335E-05 0.729E-05   -.549E-15 -.119E-15 0.145E-15   0.911E-05 -.923E-05 -.176E-04   -.175E-06 0.152E-06 0.405E-06
 
 
 POSITION                                       TOTAL-FORCE (eV/Angst)
 -----------------------------------------------------------------------------------
      0.00000      0.00000      0.00000         0.000003      0.000002      0.000001
      2.73486      2.73486      0.00000         0.000002      0.000002      0.000000
      0.00000      2.73486      2.73486        -0.000001      0.000001     -0.000000
      2.73486      5.46971      2.73486         0.000000      0.000002      0.000002
      2.73486      0.00000      2.73486        -0.000000      0.000002      0.000003
      5.46971      2.73486      2.73486         0.000000      0.000002      0.000001
      2.73486      2.73486      5.46971         0.000000      0.000001      0.000001
      5.46971      5.46971      5.46971         0.000002      0.000001      0.000001
      1.36743      1.36743      1.36743        -0.000001     -0.000001      0.000001
      4.10229      4.10229      1.36743        -0.000002     -0.000000     -0.000001
      1.36743      4.10229      4.10229        -0.000002     -0.000002     -0.000001
      4.10229      6.83714      4.10229        -0.000000     -0.000002     -0.000000
      4.10229      1.36743      4.10229        -0.000001     -0.000003     -0.000001
      6.83714      4.10229      4.10229        -0.000000     -0.000003     -0.000001
      4.10229      4.10229      6.83714        -0.000000     -0.000002     -0.000003
      6.83714      6.83714      6.83714        -0.000001     -0.000001     -0.000001
 -----------------------------------------------------------------------------------
    total drift:                                0.000005     -0.000005     -0.000009


--------------------------------------------------------------------------------------------------------



  FREE ENERGIE OF THE ION-ELECTRON SYSTEM (eV)
  ---------------------------------------------------
  free  energy   TOTEN  =      -142.66170604 eV

  energy  without entropy=     -142.66170604  energy(sigma->0) =     -142.66170604
 


--------------------------------------------------------------------------------------------------------


    POTLOK:  cpu time    0.1340: real time    0.1347


--------------------------------------------------------------------------------------------------------


 writing wavefunctions
     LOOP+:  cpu time   19.8707: real time   19.9406
    4ORBIT:  cpu time    0.0000: real time    0.0000

 total amount of memory used by VASP MPI-rank0   180686. kBytes
=======================================================================

   base      :      30000. kBytes
   nonl-proj :       1228. kBytes
   fftplans  :        513. kBytes
   grid      :       2897. kBytes
   one-center:        124. kBytes
   HF        :         64. kBytes
   nonlr-proj:       7895. kBytes
   wavefun   :        208. kBytes
   fock_wrk  :     137757. kBytes
 
  
  
 General timing and accounting informations for this job:
 ========================================================
  
                  Total CPU time used (sec):       25.308
                            User time (sec):       17.417
                          System time (sec):        7.891
                         Elapsed time (sec):       26.083
  
                   Maximum memory used (kb):     1632172.
                   Average memory used (kb):          N/A
  
                          Minor page faults:       411278
                          Major page faults:            0
                 Voluntary context switches:         1744
