 vasp.6.2.0 18Jan21 (build Nov 12 2021 22:59:13) gamma-only                     
  
 executed on             LinuxIFC date 2021.12.15  08:43:06
 running on  192 total cores
 distrk:  each k-point on  192 cores,    1 groups
 distr:  one band on NCORE=   1 cores,  192 groups


--------------------------------------------------------------------------------------------------------


 INCAR:
   ENCUT = 400
   SIGMA = 0.0001
   EDIFF = 1E-6
   LHFCALC = .TRUE.
   AEXX = 1.0
   ISYM = -1
   ALGO = sub
   NELM = 1
   NBANDS = 180
   NBANDSHIGH = 180

 POTCAR:    PAW Si_GW 04May2012                   
 -----------------------------------------------------------------------------
|                                                                             |
|           W    W    AA    RRRRR   N    N  II  N    N   GGGG   !!!           |
|           W    W   A  A   R    R  NN   N  II  NN   N  G    G  !!!           |
|           W    W  A    A  R    R  N N  N  II  N N  N  G       !!!           |
|           W WW W  AAAAAA  RRRRR   N  N N  II  N  N N  G  GGG   !            |
|           WW  WW  A    A  R   R   N   NN  II  N   NN  G    G                |
|           W    W  A    A  R    R  N    N  II  N    N   GGGG   !!!           |
|                                                                             |
|     For optimal performance we recommend to set                             |
|       NCORE = 2 up to number-of-cores-per-socket                            |
|     NCORE specifies how many cores store one orbital (NPAR=cpu/NCORE).      |
|     This setting can greatly improve the performance of VASP for DFT.       |
|     The default, NCORE=1 might be grossly inefficient on modern             |
|     multi-core architectures or massively parallel machines. Do your        |
|     own testing! More info at https://www.vasp.at/wiki/index.php/NCORE      |
|     Unfortunately you need to use the default for GW and RPA                |
|     calculations (for HF NCORE is supported but not extensively tested      |
|     yet).                                                                   |
|                                                                             |
 -----------------------------------------------------------------------------

 POTCAR:    PAW Si_GW 04May2012                   
   VRHFIN =Si: s2p2                                                                                 
   LEXCH  = PE                                                                                      
   EATOM  =   103.0669 eV,    7.5752 Ry                                                             
                                                                                                    
   TITEL  = PAW Si_GW 04May2012                                                                     
   LULTRA =        F    use ultrasoft PP ?                                                          
   IUNSCR =        1    unscreen: 0-lin 1-nonlin 2-no                                               
   RPACOR =    1.500    partial core radius                                                         
   POMASS =   28.085; ZVAL   =    4.000    mass and valenz                                          
   RCORE  =    1.900    outmost cutoff radius                                                       
   RWIGS  =    2.480; RWIGS  =    1.312    wigner-seitz radius (au A)                               
   ENMAX  =  245.345; ENMIN  =  184.009 eV                                                          
   ICORE  =        3    local potential                                                             
   LCOR   =        T    correct aug charges                                                         
   LPAW   =        T    paw PP                                                                      
   EAUG   =  412.952                                                                                
   DEXC   =    0.000                                                                                
   RMAX   =    1.950    core radius for proj-oper                                                   
   RAUG   =    1.300    factor for augmentation sphere                                              
   RDEP   =    1.993    radius for radial grids                                                     
   RDEPT  =    2.000    core radius for aug-charge                                                  
                                                                                                    
   Atomic configuration                                                                             
    7 entries                                                                                       
     n  l   j            E        occ.                                                              
     1  0  0.50     -1785.8828   2.0000                                                             
     2  0  0.50      -139.4969   2.0000                                                             
     2  1  1.50       -95.5546   6.0000                                                             
     3  0  0.50       -10.8127   2.0000                                                             
     3  1  0.50        -4.0811   2.0000                                                             
     3  2  1.50        -4.0817   0.0000                                                             
     4  3  2.50        -4.0817   0.0000                                                             
   Description                                                                                      
     l       E           TYP  RCUT    TYP  RCUT                                                     
     0    -10.8127223     23  1.900                                                                 
     0     95.2407820     23  1.900                                                                 
     1     -4.0811372     23  1.900                                                                 
     1     54.4233040     23  1.900                                                                 
     2     -8.1634956     23  1.900                                                                 
     2     81.6349560     23  1.900                                                                 
     3     27.2116520     23  1.900                                                                 
  local pseudopotential read in
  partial core-charges read in
  partial kinetic energy density read in
  kinetic energy density of atom read in
  atomic valenz-charges read in
  non local Contribution for L=           0  read in
    real space projection operators read in
  non local Contribution for L=           0  read in
    real space projection operators read in
  non local Contribution for L=           1  read in
    real space projection operators read in
  non local Contribution for L=           1  read in
    real space projection operators read in
  non local Contribution for L=           2  read in
    real space projection operators read in
  non local Contribution for L=           2  read in
    real space projection operators read in
    PAW grid and wavefunctions read in
 
   number of l-projection  operators is LMAX  =           6
   number of lm-projection operators is LMMAX =          18
 
  PAW Si_GW 04May2012                   :
 energy of atom  1       EATOM= -103.0669
 kinetic energy error for atom=    0.0012 (will be added to EATOM!!)
 
 
 POSCAR: cd:
  positions in direct lattice
  velocities in cartesian coordinates
 exchange correlation table for  LEXCH =        8
   RHO(1)=    0.500       N(1)  =     2000
   RHO(2)=  100.500       N(2)  =     4000
 


--------------------------------------------------------------------------------------------------------


 ion  position               nearest neighbor table
   1  0.001  0.001  0.001-   9 2.38  12 2.38  10 2.38
   2  0.496  0.001  0.001-   9 2.38  11 2.38  13 2.38
   3  0.001  0.496  0.001-  10 2.38  11 2.38  14 2.38
   4  0.500  0.500  0.000-   9 2.37  10 2.37  11 2.37  15 2.37
   5  0.001  0.001  0.496-  12 2.38  13 2.38  14 2.38
   6  0.500  0.000  0.500-   9 2.37  12 2.37  13 2.37  15 2.37
   7  0.000  0.500  0.500-  10 2.37  12 2.37  14 2.37  15 2.37
   8  0.500  0.500  0.500-  11 2.37  13 2.37  14 2.37  15 2.37
   9  0.625  0.125  0.125-   4 2.37   6 2.37   2 2.38   1 2.38
  10  0.125  0.625  0.125-   4 2.37   7 2.37   3 2.38   1 2.38
  11  0.625  0.625  0.125-   4 2.37   8 2.37   2 2.38   3 2.38
  12  0.125  0.125  0.625-   6 2.37   7 2.37   5 2.38   1 2.38
  13  0.625  0.125  0.625-   6 2.37   8 2.37   2 2.38   5 2.38
  14  0.125  0.625  0.625-   7 2.37   8 2.37   3 2.38   5 2.38
  15  0.625  0.625  0.625-   4 2.37   7 2.37   6 2.37   8 2.37
 

IMPORTANT INFORMATION: All symmetrisations will be switched off!
NOSYMM: (Re-)initialisation of all symmetry stuff for point group C_1.


----------------------------------------------------------------------------------------

                                     Primitive cell                                     

  volume of cell :     327.2832

  direct lattice vectors                    reciprocal lattice vectors
     5.469713400  5.469713400  0.000000000     0.091412468  0.091412468 -0.091412468
     0.000000000  5.469713400  5.469713400    -0.091412468  0.091412468  0.091412468
     5.469713400  0.000000000  5.469713400     0.091412468 -0.091412468  0.091412468

  length of vectors
     7.735342873  7.735342873  7.735342873     0.158331039  0.158331039  0.158331039

  position of ions in fractional coordinates (direct lattice)
     0.001371464  0.001371464  0.001371464
     0.495885607  0.001371464  0.001371464
     0.001371464  0.495885607  0.001371464
     0.499999461  0.499999461  0.000001617
     0.001371464  0.001371464  0.495885607
     0.499999461  0.000001617  0.499999461
     0.000001617  0.499999461  0.499999461
     0.499999461  0.499999461  0.499999461
     0.624789722  0.125210278  0.125210278
     0.125210278  0.624789722  0.125210278
     0.624789722  0.624789722  0.125210278
     0.125210278  0.125210278  0.624789722
     0.624789722  0.125210278  0.624789722
     0.125210278  0.624789722  0.624789722
     0.625000000  0.625000000  0.625000000

  ion indices of the primitive-cell ions
   primitive index   ion index
                 1           1
                 2           2
                 3           3
                 4           4
                 5           5
                 6           6
                 7           7
                 8           8
                 9           9
                10          10
                11          11
                12          12
                13          13
                14          14
                15          15

----------------------------------------------------------------------------------------

 
 
 KPOINTS: Automatic mesh                          

Automatic generation of k-mesh.
 Grid dimensions read from file:
 generate k-points for:    1    1    1

 Generating k-lattice:

  Cartesian coordinates                     Fractional coordinates (reciprocal lattice)
     0.091412468  0.091412468 -0.091412468     1.000000000  0.000000000  0.000000000
    -0.091412468  0.091412468  0.091412468     0.000000000  1.000000000 -0.000000000
     0.091412468 -0.091412468  0.091412468    -0.000000000 -0.000000000  1.000000000

  Length of vectors
     0.158331039  0.158331039  0.158331039

  Shift w.r.t. Gamma in fractional coordinates (k-lattice)
     0.000000000  0.000000000  0.000000000

 
 Subroutine IBZKPT returns following result:
 ===========================================
 
 Found      1 irreducible k-points:
 
 Following reciprocal coordinates:
            Coordinates               Weight
  0.000000  0.000000  0.000000      1.000000
 
 Following cartesian coordinates:
            Coordinates               Weight
  0.000000  0.000000  0.000000      1.000000
 
 WARNING: full set of k-points will be restricted to regular points only.

 
 Subroutine IBZKPT_HF returns following result:
 ==============================================
 
 Found      1 k-points in 1st BZ
 the following      1 k-points will be used (e.g. in the exchange kernel)
 Following reciprocal coordinates:   # in IRBZ
  0.000000  0.000000  0.000000    1.00000000   1 t-inv F
 -----------------------------------------------------------------------------
|                                                                             |
|           W    W    AA    RRRRR   N    N  II  N    N   GGGG   !!!           |
|           W    W   A  A   R    R  NN   N  II  NN   N  G    G  !!!           |
|           W    W  A    A  R    R  N N  N  II  N N  N  G       !!!           |
|           W WW W  AAAAAA  RRRRR   N  N N  II  N  N N  G  GGG   !            |
|           WW  WW  A    A  R   R   N   NN  II  N   NN  G    G                |
|           W    W  A    A  R    R  N    N  II  N    N   GGGG   !!!           |
|                                                                             |
|     The number of bands has been changed from the values supplied in        |
|     the INCAR file. This is a result of running the parallel version.       |
|     The orbitals not found in the WAVECAR file will be initialized with     |
|     random numbers, which is usually adequate. For correlated               |
|     calculations, however, you should redo the groundstate calculation.     |
|     I found NBANDS = 180. Now, NBANDS = 192.                                |
|                                                                             |
 -----------------------------------------------------------------------------



--------------------------------------------------------------------------------------------------------




 Dimension of arrays:
   k-points           NKPTS =      1   k-points in BZ     NKDIM =      1   number of bands    NBANDS=    192
   number of dos      NEDOS =    301   number of ions     NIONS =     15
   non local maximal  LDIM  =      6   non local SUM 2l+1 LMDIM =     18
   total plane-waves  NPLWV =  64000
   max r-space proj   IRMAX =      1   max aug-charges    IRDMAX=   9797
   dimension x,y,z NGX =    40 NGY =   40 NGZ =   40
   dimension x,y,z NGXF=    80 NGYF=   80 NGZF=   80
   support grid    NGXF=    80 NGYF=   80 NGZF=   80
   ions per type =              15
   lowest and highest band optimized NBANDSLOW=      -1 NBANDSHIGH=     180
   NGX,Y,Z   is equivalent  to a cutoff of   8.60,  8.60,  8.60 a.u.
   NGXF,Y,Z  is equivalent  to a cutoff of  17.19, 17.19, 17.19 a.u.

 SYSTEM =  unknown system                          
 POSCAR =  cd:                                     

 Startparameter for this run:
   NWRITE =      2    write-flag & timer
   PREC   = normal    normal or accurate (medium, high low for compatibility)
   ISTART =      1    job   : 0-new  1-cont  2-samecut
   ICHARG =      0    charge: 1-file 2-atom 10-const
   ISPIN  =      1    spin polarized calculation?
   LNONCOLLINEAR =      F non collinear calculations
   LSORBIT =      F    spin-orbit coupling
   INIWAV =      1    electr: 0-lowe 1-rand  2-diag
   LASPH  =      F    aspherical Exc in radial PAW
   METAGGA=      F    non-selfconsistent MetaGGA calc.

 Electronic Relaxation 1
   ENCUT  =  400.0 eV  29.40 Ry    5.42 a.u.  12.61 12.61 12.61*2*pi/ulx,y,z
   ENINI  =  400.0     initial cutoff
   ENAUG  =  413.0 eV  augmentation charge cutoff
   NELM   =      1;   NELMIN=  2; NELMDL=  0     # of ELM steps 
   EDIFF  = 0.1E-05   stopping-criterion for ELM
   LREAL  =      F    real-space projection
   NLSPLINE    = F    spline interpolate recip. space projectors
   LCOMPAT=      F    compatible to vasp.4.4
   GGA_COMPAT  = T    GGA compatible to vasp.4.4-vasp.4.6
   LMAXPAW     = -100 max onsite density
   LMAXMIX     =    2 max onsite mixed and CHGCAR
   VOSKOWN=      0    Vosko Wilk Nusair interpolation
   ROPT   =    0.00000
 Ionic relaxation
   EDIFFG = 0.1E-04   stopping-criterion for IOM
   NSW    =      0    number of steps for IOM
   NBLOCK =      1;   KBLOCK =      1    inner block; outer block 
   IBRION =     -1    ionic relax: 0-MD 1-quasi-New 2-CG
   NFREE  =      0    steps in history (QN), initial steepest desc. (CG)
   ISIF   =      0    stress and relaxation
   IWAVPR =     10    prediction:  0-non 1-charg 2-wave 3-comb
   ISYM   =     -1    0-nonsym 1-usesym 2-fastsym
   LCORR  =      T    Harris-Foulkes like correction to forces

   POTIM  = 0.5000    time-step for ionic-motion
   TEIN   =    0.0    initial temperature
   TEBEG  =    0.0;   TEEND  =   0.0 temperature during run
   SMASS  =  -3.00    Nose mass-parameter (am)
   estimated Nose-frequenzy (Omega)   =  0.10E-29 period in steps = 0.13E+47 mass=  -0.137E-26a.u.
   SCALEE = 1.0000    scale energy and forces
   NPACO  =    256;   APACO  = 16.0  distance and # of slots for P.C.
   PSTRESS=    0.0 pullay stress

  Mass of Ions in am
   POMASS =  28.09
  Ionic Valenz
   ZVAL   =   4.00
  Atomic Wigner-Seitz radii
   RWIGS  =  -1.00
  virtual crystal weights 
   VCA    =   1.00
   NELECT =      60.0000    total number of electrons
   NUPDOWN=      -1.0000    fix difference up-down

 DOS related values:
   EMIN   =  10.00;   EMAX   =-10.00  energy-range for DOS
   EFERMI =   0.00
   ISMEAR =     1;   SIGMA  =   0.00  broadening in eV -4-tet -1-fermi 0-gaus

 Electronic relaxation 2 (details)
   IALGO  =      4    algorithm
   LDIAG  =      T    sub-space diagonalisation (order eigenvalues)
   LSUBROT=      F    optimize rotation matrix (better conditioning)
   TURBO    =      0    0=normal 1=particle mesh
   IRESTART =      0    0=no restart 2=restart with 2 vectors
   NREBOOT  =      0    no. of reboots
   NMIN     =      0    reboot dimension
   EREF     =   0.00    reference energy to select bands
   IMIX   =      1    mixing-type and parameters
     AMIX     =   0.40;   BMIX     =  1.00
     AMIX_MAG =   1.60;   BMIX_MAG =  1.00
     AMIN     =   0.10
     WC   =   100.;   INIMIX=   1;  MIXPRE=   1;  MAXMIX= -45

 Intra band minimization:
   WEIMIN = 0.0000     energy-eigenvalue tresh-hold
   EBREAK =  0.13E-08  absolut break condition
   DEPER  =   0.30     relativ break condition  

   TIME   =   0.40     timestep for ELM

  volume/ion in A,a.u.               =      21.82       147.24
  Fermi-wavevector in a.u.,A,eV,Ry     =   0.930002  1.757449 11.767737  0.864904
  Thomas-Fermi vector in A             =   2.056345
 
 Write flags
   LWAVE        =      T    write WAVECAR
   LDOWNSAMPLE  =      F    k-point downsampling of WAVECAR
   LCHARG       =      T    write CHGCAR
   LVTOT        =      F    write LOCPOT, total local potential
   LVHAR        =      F    write LOCPOT, Hartree potential only
   LELF         =      F    write electronic localiz. function (ELF)
   LORBIT       =      0    0 simple, 1 ext, 2 COOP (PROOUT), +10 PAW based schemes


 Dipole corrections
   LMONO  =      F    monopole corrections only (constant potential shift)
   LDIPOL =      F    correct potential (dipole corrections)
   IDIPOL =      0    1-x, 2-y, 3-z, 4-all directions 
   EPSILON=  1.0000000 bulk dielectric constant

 Exchange correlation treatment:
   GGA     =    --    GGA type
   LEXCH   =     8    internal setting for exchange type
   VOSKOWN=      0    Vosko Wilk Nusair interpolation
   EXXOEP  =     0    0=HF, 1=EXX-LHF (local Hartree Fock) 2=EXX OEP
   LHFCALC =     T    Hartree Fock is set to
   LSYMGRAD=     F    symmetrize gradient (conserves proper symmetry)
   PRECFOCK=normal    Normal, Fast or Accurate (Low or Medium for compatibility)
   LRHFCALC=     F    long range Hartree Fock
   LRSCOR  =     F    long range correlation only (use DFT for short range part)
   LTHOMAS =     F    Thomas Fermi screening in HF
   LMODELHF=     F    short range full HF, long range fraction AEXX
   LFOCKACE=     T    use Adeptively-Compressed-Exchange operator
   ENCUT4O =  -1.0   cutoff for four orbital integrals eV
   LMAXFOCK=     4    L truncation for augmentation on plane wave grid
   LMAXFOCKAE=  -1    L truncation for all-electron charge restoration on plane wave grid
   NMAXFOCKAE=   1    number of basis functions for all-electron charge restoration
   LFOCKAEDFT=     F  apply the AE augmentation even for DFT
   NKREDX  =     1    reduce k-point grid by
   NKREDY  =     1    reduce k-point grid by
   NKREDZ  =     1    reduce k-point grid by
   SHIFTRED=     F    shift reduced grid of Gamma
   HFKIDENT=     F    idential grid for each k-point
   ODDONLY =     F    use only odd q-grid points
   EVENONLY=     F    use only even q-grid points
   HFALPHA =   -1.0000 decay constant for conv. correction
   MCALPHA =    0.0000 extent of test-charge in conv. correction in multipole expansion
   AEXX    =    1.0000 exact exchange contribution
   HFSCREEN=    0.0000 screening length (either q_TF or 0.3 A-1)
   HFSCREENC=   0.0000 screening length for correlation (either q_TF or 0.3 A-1)
   HFRCUT  =    0.0000 spherical cutoff for potential kernel
   ALDAX   =    0.0000 LDA exchange part
   AGGAX   =    0.0000 GGA exchange part
   ALDAC   =    0.0000 LDA correlation
   AGGAC   =    0.0000 GGA correlation
   ENCUTFOCK=  -1.0 apply spherical cutoff to Coloumb kernel
   NBANDSGWLOW=     1    first orbital included in HF term
   NBLOCK_FOCK=    64    blocking factor in FOCK_ACC
 Linear response parameters
   LEPSILON=     F    determine dielectric tensor
   LRPA    =     F    only Hartree local field effects (RPA)
   LNABLA  =     F    use nabla operator in PAW spheres
   LVEL    =     F    velocity operator in full k-point grid
   LINTERFAST=   F  fast interpolation
   KINTER  =     0    interpolate to denser k-point grid
   CSHIFT  =0.1000    complex shift for real part using Kramers Kronig
   OMEGAMAX=  -1.0    maximum frequency
   DEG_THRESHOLD= 0.2000000E-02 threshold for treating states as degnerate
   RTIME   =   -0.100 relaxation time in fs
  (WPLASMAI=    0.000 imaginary part of plasma frequency in eV, 0.658/RTIME)
   DFIELD  = 0.0000000 0.0000000 0.0000000 field for delta impulse in time
 
 Orbital magnetization related:
   ORBITALMAG=     F  switch on orbital magnetization
   LCHIMAG   =     F  perturbation theory with respect to B field
   DQ        =  0.001000  dq finite difference perturbation B field
   LLRAUG    =     F  two centre corrections for induced B field



--------------------------------------------------------------------------------------------------------


 Static calculation
 charge density and potential will be updated during run
 non-spin polarized calculation
 Subrot: only subspace diagonalization (rotation)
    band-by band algorithm
 perform sub-space diagonalisation
    before iterative eigenvector-optimisation
 Kerker-like  mixing scheme
 using additional bands          162
 reciprocal scheme for non local part
 use partial core corrections
 calculate Harris-corrections to forces 
   (improved forces if not selfconsistent)
 use gradient corrections 
 use of overlap-Matrix (Vanderbilt PP)
 Methfessel and Paxton  Order N= 1 SIGMA  =   0.00


--------------------------------------------------------------------------------------------------------


  energy-cutoff  :      400.00
  volume of cell :      327.28
      direct lattice vectors                 reciprocal lattice vectors
     5.469713400  5.469713400  0.000000000     0.091412468  0.091412468 -0.091412468
     0.000000000  5.469713400  5.469713400    -0.091412468  0.091412468  0.091412468
     5.469713400  0.000000000  5.469713400     0.091412468 -0.091412468  0.091412468

  length of vectors
     7.735342873  7.735342873  7.735342873     0.158331039  0.158331039  0.158331039


 
 old parameters found on file WAVECAR:
  energy-cutoff  :      400.00
  volume of cell :      327.28
      direct lattice vectors                 reciprocal lattice vectors
     5.469713400  5.469713400  0.000000000     0.091412468  0.091412468 -0.091412468
     0.000000000  5.469713400  5.469713400    -0.091412468  0.091412468  0.091412468
     5.469713400  0.000000000  5.469713400     0.091412468 -0.091412468  0.091412468

  length of vectors

 
 k-points in units of 2pi/SCALE and weight: Automatic mesh                          
   0.00000000  0.00000000  0.00000000       1.000
 
 k-points in reciprocal lattice and weights: Automatic mesh                          
   0.00000000  0.00000000  0.00000000       1.000
 
 position of ions in fractional coordinates (direct lattice) 
   0.00137146  0.00137146  0.00137146
   0.49588561  0.00137146  0.00137146
   0.00137146  0.49588561  0.00137146
   0.49999946  0.49999946  0.00000162
   0.00137146  0.00137146  0.49588561
   0.49999946  0.00000162  0.49999946
   0.00000162  0.49999946  0.49999946
   0.49999946  0.49999946  0.49999946
   0.62478972  0.12521028  0.12521028
   0.12521028  0.62478972  0.12521028
   0.62478972  0.62478972  0.12521028
   0.12521028  0.12521028  0.62478972
   0.62478972  0.12521028  0.62478972
   0.12521028  0.62478972  0.62478972
   0.62500000  0.62500000  0.62500000
 
 position of ions in cartesian coordinates  (Angst):
   0.01500303  0.01500303  0.01500303
   2.71985367  2.71985367  0.01500303
   0.01500303  2.71985367  2.71985367
   2.73486260  5.46970750  2.73486260
   2.71985367  0.01500303  2.71985367
   5.46970750  2.73486260  2.73486260
   2.73486260  2.73486260  5.46970750
   5.46970750  5.46970750  5.46970750
   4.10228505  4.10228505  1.36972867
   1.36972867  4.10228505  4.10228505
   4.10228505  6.83484143  4.10228505
   4.10228505  1.36972867  4.10228505
   6.83484143  4.10228505  4.10228505
   4.10228505  4.10228505  6.83484143
   6.83714175  6.83714175  6.83714175
 


--------------------------------------------------------------------------------------------------------


 use serial FFT for orbitals x direction half grid
 k-point   1 :   0.0000 0.0000 0.0000  plane waves:    2981

 maximum and minimum number of plane-waves per node :      2981     2981

 maximum number of plane-waves:      2981
 maximum index in each direction: 
   IXMAX=   12   IYMAX=   12   IZMAX=   12
   IXMIN=    0   IYMIN=  -10   IZMIN=  -10


 serial   3D FFT for wavefunctions
 parallel 3D FFT for charge:
    minimum data exchange during FFTs selected (reduces bandwidth)

 
 Radii for the augmentation spheres in the non-local exchange
 for species   1 augmentation radius   1.405 (default was   1.124)
       energy cutoff for augmentation   1600.0
 Maximum index for augmentation-charges in exchange         2259
  SETUP_FOCK is finished

 total amount of memory used by VASP MPI-rank0    42236. kBytes
=======================================================================

   base      :      30000. kBytes
   nonl-proj :       1179. kBytes
   fftplans  :        513. kBytes
   grid      :       2897. kBytes
   one-center:        116. kBytes
   HF        :         64. kBytes
   nonlr-proj:       7415. kBytes
   wavefun   :         52. kBytes
 
     INWAV:  cpu time    0.1935: real time    0.1943
 charge density for first step will be calculated from the start-wavefunctions


--------------------------------------------------------------------------------------------------------


 Maximum index for augmentation-charges          499 (set IRDMAX)


--------------------------------------------------------------------------------------------------------


 initial charge from wavefunction
    FEWALD:  cpu time    0.0024: real time    0.0024


--------------------------------------- Iteration      1(   1)  ---------------------------------------


    POTLOK:  cpu time    0.1306: real time    0.1330
    SETDIJ:  cpu time    0.0122: real time    0.0123
    EDDIAG:  cpu time    4.6857: real time    4.6991
       DOS:  cpu time    0.0011: real time    0.0013
    --------------------------------------------
      LOOP:  cpu time    4.8296: real time    4.8457

 eigenvalue-minimisations  :     0
 total energy-change (2. order) :-0.1313264E+03  ( 0.0000000E+00)
 number of electron      59.9999980 magnetization 
 augmentation part       -3.2407021 magnetization 

 Free energy of the ion-electron system (eV)
  ---------------------------------------------------
  alpha Z        PSCENC =        41.88619531
  Ewald energy   TEWEN  =     -1640.06298675
  -Hartree energ DENC   =      -156.34976172
  -exchange      EXHF   =       444.04229560
  -V(xc)+E(xc)   XCENC  =         0.00000000
  PAW double counting   =      1933.85232333    -1937.27765057
  entropy T*S    EENTRO =         0.00000000
  eigenvalues    EBANDS =      -228.47443322
  atomic energy  EATOM  =      1411.05760457
  Solvation  Ediel_sol  =         0.00000000
  ---------------------------------------------------
  free energy    TOTEN  =      -131.32641345 eV

  energy without entropy =     -131.32641345  energy(sigma->0) =     -131.32641345
  exchange ACFDT corr.  =      -485.17425719  see jH, gK, PRB 81, 115126


--------------------------------------------------------------------------------------------------------




 average (electrostatic) potential at core
  the test charge radii are     1.1243
  (the norm of the test charge is              1.0000)
       1 -50.3658       2 -52.1760       3 -52.1758       4 -50.5476       5 -52.1759
       6 -50.5476       7 -50.5476       8 -50.6263       9 -50.6594      10 -50.6594
      11 -51.1826      12 -50.6594      13 -51.1826      14 -51.1826      15 -50.4201
 
 
 
 E-fermi :   4.4563     XC(G=0):   0.0000     alpha+bet :-10.6543

 Fermi energy:         4.4563164726

 k-point     1 :       0.0000    0.0000    0.0000
  band No.  band energies     occupation 
      1     -13.4605      2.00000
      2     -10.4988      2.00000
      3     -10.4988      2.00000
      4     -10.4492      2.00000
      5      -9.6253      2.00000
      6      -7.9394      2.00000
      7      -7.9394      2.00000
      8      -7.7508      2.00000
      9      -7.7508      2.00000
     10      -7.6513      2.00000
     11      -6.7406      2.00000
     12      -6.1291      2.00000
     13      -6.1291      2.00000
     14      -6.0761      2.00000
     15      -1.6452      2.00000
     16      -1.3316      2.00000
     17      -1.2617      2.00000
     18      -1.2617      2.00000
     19      -0.7465      2.00000
     20      -0.7152      2.00000
     21      -0.7152      2.00000
     22       0.5184      2.00000
     23       0.5185      2.00000
     24       0.5769      2.00000
     25       0.6727      2.00000
     26       0.6727      2.00000
     27       1.4907      2.00000
     28       1.6235      2.00000
     29       1.6235      2.00000
     30       4.3820      2.00000
     31      10.4638      0.00000
     32      10.5052      0.00000
     33      10.8529      0.00000
     34      10.9755      0.00000
     35      11.1190      0.00000
     36      11.2810      0.00000
     37      11.4007      0.00000
     38      11.5431      0.00000
     39      12.0434      0.00000
     40      12.0846      0.00000
     41      12.0976      0.00000
     42      13.2969      0.00000
     43      13.3323      0.00000
     44      13.4304      0.00000
     45      13.4858      0.00000
     46      14.0666      0.00000
     47      14.1140      0.00000
     48      14.2618      0.00000
     49      14.3508      0.00000
     50      14.4014      0.00000
     51      14.8745      0.00000
     52      15.0400      0.00000
     53      15.0708      0.00000
     54      15.9027      0.00000
     55      18.9157      0.00000
     56      19.4238      0.00000
     57      19.4494      0.00000
     58      20.1808      0.00000
     59      21.0627      0.00000
     60      21.3541      0.00000
     61      21.4835      0.00000
     62      22.3243      0.00000
     63      22.4129      0.00000
     64      22.5849      0.00000
     65      22.8036      0.00000
     66      22.8903      0.00000
     67      22.9026      0.00000
     68      22.9330      0.00000
     69      22.9885      0.00000
     70      23.0839      0.00000
     71      23.1240      0.00000
     72      23.1990      0.00000
     73      23.2914      0.00000
     74      23.3293      0.00000
     75      23.4198      0.00000
     76      23.5010      0.00000
     77      23.5725      0.00000
     78      23.6809      0.00000
     79      23.9069      0.00000
     80      23.9557      0.00000
     81      24.0120      0.00000
     82      24.0869      0.00000
     83      24.4208      0.00000
     84      24.4511      0.00000
     85      24.5918      0.00000
     86      24.7027      0.00000
     87      24.7170      0.00000
     88      24.7628      0.00000
     89      24.8407      0.00000
     90      25.0214      0.00000
     91      25.0677      0.00000
     92      25.0802      0.00000
     93      25.2498      0.00000
     94      25.3407      0.00000
     95      25.4319      0.00000
     96      25.5478      0.00000
     97      25.6419      0.00000
     98      25.6873      0.00000
     99      25.8903      0.00000
    100      25.9218      0.00000
    101      26.1620      0.00000
    102      26.2678      0.00000
    103      26.4846      0.00000
    104      26.6003      0.00000
    105      26.6341      0.00000
    106      26.7444      0.00000
    107      27.0058      0.00000
    108      27.1903      0.00000
    109      27.2024      0.00000
    110      29.5026      0.00000
    111      29.6962      0.00000
    112      29.7323      0.00000
    113      33.4385      0.00000
    114      34.2534      0.00000
    115      34.6883      0.00000
    116      34.8198      0.00000
    117      35.0086      0.00000
    118      35.1537      0.00000
    119      35.2540      0.00000
    120      35.2630      0.00000
    121      35.3913      0.00000
    122      35.5892      0.00000
    123      35.6405      0.00000
    124      35.7640      0.00000
    125      35.8617      0.00000
    126      35.9533      0.00000
    127      36.0751      0.00000
    128      36.1176      0.00000
    129      36.2921      0.00000
    130      36.4665      0.00000
    131      36.5672      0.00000
    132      36.6339      0.00000
    133      36.7251      0.00000
    134      36.9332      0.00000
    135      37.2034      0.00000
    136      37.2572      0.00000
    137      37.4248      0.00000
    138      37.5286      0.00000
    139      37.7382      0.00000
    140      37.8828      0.00000
    141      38.0753      0.00000
    142      38.1549      0.00000
    143      38.3932      0.00000
    144      38.8532      0.00000
    145      39.0182      0.00000
    146      39.3862      0.00000
    147      39.4617      0.00000
    148      39.8896      0.00000
    149      40.3475      0.00000
    150      41.0956      0.00000
    151      41.5977      0.00000
    152      41.8460      0.00000
    153      41.9860      0.00000
    154      42.3786      0.00000
    155      42.7035      0.00000
    156      42.7891      0.00000
    157      42.9710      0.00000
    158      43.4098      0.00000
    159      43.5040      0.00000
    160      43.6461      0.00000
    161      43.7250      0.00000
    162      43.9769      0.00000
    163      44.4160      0.00000
    164      44.4907      0.00000
    165      44.8262      0.00000
    166      44.9203      0.00000
    167      45.0864      0.00000
    168      45.3515      0.00000
    169      45.7582      0.00000
    170      45.9028      0.00000
    171      46.0067      0.00000
    172      46.2185      0.00000
    173      46.2622      0.00000
    174      46.3915      0.00000
    175      46.4793      0.00000
    176      46.6317      0.00000
    177      46.7291      0.00000
    178      46.9494      0.00000
    179      47.0660      0.00000
    180      50.3193      0.00000
    181      38.9884      0.00000
    182      40.1237      0.00000
    183      40.3264      0.00000
    184      40.4678      0.00000
    185      40.5787      0.00000
    186      40.6237      0.00000
    187      40.7881      0.00000
    188      41.0822      0.00000
    189      41.1522      0.00000
    190      42.6559      0.00000
    191      43.3391      0.00000
    192      43.9380      0.00000


--------------------------------------------------------------------------------------------------------


 soft charge-density along one line, spin component           1
         0         1         2         3         4         5         6         7         8         9
 total charge-density along one line
 
 pseudopotential strength for first ion, spin component:           1
 14.418 -16.702  -0.027  -0.027  -0.027   0.086   0.086   0.086
-16.702  52.819   0.009   0.009   0.009  -0.023  -0.023  -0.023
 -0.027   0.009   3.360   0.001   0.001  -9.837  -0.002  -0.002
 -0.027   0.009   0.001   3.360   0.001  -0.002  -9.837  -0.002
 -0.027   0.009   0.001   0.001   3.360  -0.002  -0.002  -9.837
  0.086  -0.023  -9.837  -0.002  -0.002  31.364   0.006   0.006
  0.086  -0.023  -0.002  -9.837  -0.002   0.006  31.364   0.006
  0.086  -0.023  -0.002  -0.002  -9.837   0.006   0.006  31.364
  0.001   0.000  -0.009  -0.004  -0.009   0.017   0.007   0.017
  0.001   0.000  -0.009  -0.009  -0.004   0.017   0.017   0.007
 -0.000  -0.000   0.006  -0.012   0.006  -0.011   0.023  -0.011
  0.001   0.000  -0.004  -0.009  -0.009   0.007   0.017   0.017
  0.000   0.000   0.010  -0.000  -0.010  -0.020   0.000   0.020
 -0.007   0.004   0.046   0.017   0.046  -0.125  -0.044  -0.125
 -0.007   0.004   0.046   0.046   0.017  -0.125  -0.125  -0.044
  0.000  -0.000  -0.030   0.061  -0.030   0.081  -0.162   0.081
 -0.007   0.004   0.017   0.046   0.046  -0.044  -0.125  -0.125
 -0.000   0.000  -0.053   0.000   0.053   0.140  -0.000  -0.140
 total augmentation occupancy for first ion, spin component:           1
  1.666   0.041   0.224   0.224   0.224   0.003   0.003   0.003  -0.025  -0.025   0.000  -0.025  -0.000  -0.000  -0.000  -0.000
  0.041   0.001  -0.005  -0.005  -0.005  -0.000  -0.000  -0.000  -0.001  -0.001  -0.000  -0.001   0.000  -0.000  -0.000  -0.000
  0.224  -0.005   1.187  -0.031  -0.031   0.047  -0.004  -0.004  -0.063  -0.063   0.007   0.140   0.012  -0.000  -0.000   0.000
  0.224  -0.005  -0.031   1.187  -0.031  -0.004   0.047  -0.004   0.140  -0.063  -0.013  -0.063  -0.000   0.000  -0.000  -0.000
  0.224  -0.005  -0.031  -0.031   1.187  -0.004  -0.004   0.047  -0.063   0.140   0.007  -0.063  -0.012  -0.000   0.000   0.000
  0.003  -0.000   0.047  -0.004  -0.004   0.002  -0.000  -0.000  -0.003  -0.003   0.000   0.006   0.001  -0.000  -0.000   0.000
  0.003  -0.000  -0.004   0.047  -0.004  -0.000   0.002  -0.000   0.006  -0.003  -0.001  -0.003  -0.000   0.000  -0.000  -0.000
  0.003  -0.000  -0.004  -0.004   0.047  -0.000  -0.000   0.002  -0.003   0.006   0.000  -0.003  -0.001  -0.000   0.000   0.000
 -0.025  -0.001  -0.063   0.140  -0.063  -0.003   0.006  -0.003   0.025  -0.011  -0.002  -0.011  -0.000   0.000  -0.000   0.000
 -0.025  -0.001  -0.063  -0.063   0.140  -0.003  -0.003   0.006  -0.011   0.025   0.001  -0.011  -0.002  -0.000   0.000  -0.000
  0.000  -0.000   0.007  -0.013   0.007   0.000  -0.001   0.000  -0.002   0.001   0.002   0.001  -0.000   0.000  -0.000   0.000
 -0.025  -0.001   0.140  -0.063  -0.063   0.006  -0.003  -0.003  -0.011  -0.011   0.001   0.025   0.002  -0.000  -0.000  -0.000
 -0.000   0.000   0.012  -0.000  -0.012   0.001  -0.000  -0.001  -0.000  -0.002  -0.000   0.002   0.002  -0.000   0.000   0.000
 -0.000  -0.000  -0.000   0.000  -0.000  -0.000   0.000  -0.000   0.000  -0.000   0.000  -0.000  -0.000   0.000  -0.000   0.000
 -0.000  -0.000  -0.000  -0.000   0.000  -0.000  -0.000   0.000  -0.000   0.000  -0.000  -0.000   0.000  -0.000   0.000  -0.000
 -0.000  -0.000   0.000  -0.000   0.000   0.000  -0.000   0.000   0.000  -0.000   0.000  -0.000   0.000   0.000  -0.000   0.000
 -0.000  -0.000   0.000  -0.000  -0.000   0.000  -0.000  -0.000  -0.000  -0.000  -0.000   0.000  -0.000  -0.000  -0.000  -0.000
  0.000   0.000   0.000  -0.000  -0.000   0.000  -0.000  -0.000  -0.000   0.000   0.000  -0.000   0.000  -0.000   0.000   0.000


------------------------ aborting loop because EDIFF is reached ----------------------------------------


    CHARGE:  cpu time    0.0265: real time    0.0265
    FORLOC:  cpu time    0.0012: real time    0.0013
    FORHF :  cpu time    0.2708: real time    0.2722
    FORNL :  cpu time    0.0288: real time    0.0292
    FORCOR:  cpu time    0.1259: real time    0.1262
    FORHAR:  cpu time    0.0291: real time    0.0295
    MIXING:  cpu time    0.0004: real time    0.0004
    OFIELD:  cpu time    0.0001: real time    0.0003

 VOLUME and BASIS-vectors are now :
 -----------------------------------------------------------------------------
  energy-cutoff  :      400.00
  volume of cell :      327.28
      direct lattice vectors                 reciprocal lattice vectors
     5.469713400  5.469713400  0.000000000     0.091412468  0.091412468 -0.091412468
     0.000000000  5.469713400  5.469713400    -0.091412468  0.091412468  0.091412468
     5.469713400  0.000000000  5.469713400     0.091412468 -0.091412468  0.091412468

  length of vectors
     7.735342873  7.735342873  7.735342873     0.158331039  0.158331039  0.158331039


 FORCES acting on ions
    electron-ion (+dipol)            ewald-force                    non-local-force                 convergence-correction
 -----------------------------------------------------------------------------------------------
   -.131E+02 -.131E+02 -.131E+02   0.189E+02 0.189E+02 0.189E+02   -.597E+01 -.597E+01 -.597E+01   0.281E-03 0.264E-03 0.231E-03
   0.209E+02 0.209E+02 -.210E+02   -.189E+02 -.189E+02 0.189E+02   -.444E+00 -.444E+00 0.134E+01   -.162E-03 -.176E-03 0.440E-05
   -.210E+02 0.209E+02 0.209E+02   0.189E+02 -.189E+02 -.189E+02   0.134E+01 -.443E+00 -.443E+00   0.103E-04 -.134E-03 -.152E-03
   -.185E+01 0.924E+00 -.185E+01   0.122E+01 -.122E+01 0.122E+01   0.411E+00 0.487E+00 0.411E+00   0.173E-03 -.109E-03 0.220E-03
   0.209E+02 -.210E+02 0.209E+02   -.189E+02 0.189E+02 -.189E+02   -.443E+00 0.134E+01 -.443E+00   -.137E-03 0.103E-04 -.168E-03
   0.924E+00 -.185E+01 -.185E+01   -.122E+01 0.122E+01 0.122E+01   0.487E+00 0.411E+00 0.411E+00   -.107E-03 0.175E-03 0.204E-03
   -.185E+01 -.185E+01 0.924E+00   0.122E+01 0.122E+01 -.122E+01   0.411E+00 0.411E+00 0.487E+00   0.199E-03 0.217E-03 -.109E-03
   0.174E+01 0.174E+01 0.174E+01   -.122E+01 -.122E+01 -.122E+01   -.296E+00 -.296E+00 -.296E+00   -.238E-03 -.224E-03 -.201E-03
   0.993E-01 0.993E-01 0.203E+01   0.199E-11 0.201E-11 -.138E+01   -.625E+00 -.625E+00 0.441E+00   -.208E-04 -.384E-04 0.388E-03
   0.203E+01 0.992E-01 0.993E-01   -.138E+01 0.203E-11 0.202E-11   0.441E+00 -.625E+00 -.625E+00   0.378E-03 0.364E-05 -.290E-04
   -.702E+00 -.329E+01 -.702E+00   -.104E-11 0.138E+01 -.106E-11   0.218E+00 0.737E+00 0.218E+00   -.128E-03 -.216E-03 -.976E-04
   0.991E-01 0.203E+01 0.993E-01   0.203E-11 -.138E+01 0.201E-11   -.625E+00 0.441E+00 -.625E+00   0.716E-05 0.381E-03 -.421E-04
   -.329E+01 -.702E+00 -.702E+00   0.138E+01 -.105E-11 -.103E-11   0.737E+00 0.218E+00 0.218E+00   -.221E-03 -.131E-03 -.112E-03
   -.702E+00 -.702E+00 -.329E+01   -.105E-11 -.103E-11 0.138E+01   0.218E+00 0.218E+00 0.737E+00   -.103E-03 -.915E-04 -.217E-03
   0.409E+00 0.409E+00 0.409E+00   0.439E-12 0.470E-12 0.439E-12   -.372E-01 -.372E-01 -.372E-01   0.129E-03 0.147E-03 0.177E-03
 -----------------------------------------------------------------------------------------------
   0.472E+01 0.472E+01 0.472E+01   0.104E-13 0.561E-14 0.102E-13   -.417E+01 -.417E+01 -.417E+01   0.604E-04 0.781E-04 0.972E-04
 
 
 POSITION                                       TOTAL-FORCE (eV/Angst)
 -----------------------------------------------------------------------------------
      0.01500      0.01500      0.01500        -0.650007     -0.650021     -0.649997
      2.71985      2.71985      0.01500         1.273336      1.273272     -0.362273
      0.01500      2.71985      2.71985        -0.362358      1.273289      1.273173
      2.73486      5.46971      2.73486        -0.164293      0.248758     -0.164307
      2.71985      0.01500      2.71985         1.273343     -0.362336      1.273162
      5.46971      2.73486      2.73486         0.248753     -0.164305     -0.164310
      2.73486      2.73486      5.46971        -0.164296     -0.164299      0.248775
      5.46971      5.46971      5.46971         0.178054      0.178065      0.178081
      4.10229      4.10229      1.36973        -0.594900     -0.594867      1.098806
      1.36973      4.10229      4.10229         1.098818     -0.594834     -0.594832
      4.10229      6.83484      4.10229        -0.462427     -0.989963     -0.462339
      4.10229      1.36973      4.10229        -0.594865      1.098819     -0.594836
      6.83484      4.10229      4.10229        -0.989968     -0.462399     -0.462344
      4.10229      4.10229      6.83484        -0.462414     -0.462385     -0.989947
      6.83714      6.83714      6.83714         0.373223      0.373207      0.373187
 -----------------------------------------------------------------------------------
    total drift:                               -0.000323     -0.000324     -0.000292


--------------------------------------------------------------------------------------------------------



  FREE ENERGIE OF THE ION-ELECTRON SYSTEM (eV)
  ---------------------------------------------------
  free  energy   TOTEN  =      -131.32641345 eV

  energy  without entropy=     -131.32641345  energy(sigma->0) =     -131.32641345
 


--------------------------------------------------------------------------------------------------------


    POTLOK:  cpu time    0.1394: real time    0.1397


--------------------------------------------------------------------------------------------------------


 writing wavefunctions
     LOOP+:  cpu time    6.4497: real time    6.4821
    4ORBIT:  cpu time    0.0000: real time    0.0000

 total amount of memory used by VASP MPI-rank0   179993. kBytes
=======================================================================

   base      :      30000. kBytes
   nonl-proj :       1179. kBytes
   fftplans  :        513. kBytes
   grid      :       2897. kBytes
   one-center:        116. kBytes
   HF        :         64. kBytes
   nonlr-proj:       7415. kBytes
   wavefun   :         52. kBytes
   fock_wrk  :     137757. kBytes
 
  
  
 General timing and accounting informations for this job:
 ========================================================
  
                  Total CPU time used (sec):       11.150
                            User time (sec):        6.253
                          System time (sec):        4.897
                         Elapsed time (sec):       11.954
  
                   Maximum memory used (kb):     1214236.
                   Average memory used (kb):          N/A
  
                          Minor page faults:       258507
                          Major page faults:            0
                 Voluntary context switches:         1783
