 vasp.6.3.0 20Jan22 (build Mar 03 2022 12:53:00) gamma-only                     
  
 executed on             LinuxIFC date 2022.03.17  05:33:01
 running on  384 total cores
 distrk:  each k-point on  384 cores,    1 groups
 distr:  one band on NCORE=   1 cores,  384 groups


--------------------------------------------------------------------------------------------------------


 INCAR:
   ENCUT = 400
   SIGMA = 0.0001
   EDIFF = 1E-6
   LHFCALC = .TRUE.
   AEXX = 1.0
   ALGO = C

 POTCAR:    PAW Si_GW 04May2012                   
 -----------------------------------------------------------------------------
|                                                                             |
|           W    W    AA    RRRRR   N    N  II  N    N   GGGG   !!!           |
|           W    W   A  A   R    R  NN   N  II  NN   N  G    G  !!!           |
|           W    W  A    A  R    R  N N  N  II  N N  N  G       !!!           |
|           W WW W  AAAAAA  RRRRR   N  N N  II  N  N N  G  GGG   !            |
|           WW  WW  A    A  R   R   N   NN  II  N   NN  G    G                |
|           W    W  A    A  R    R  N    N  II  N    N   GGGG   !!!           |
|                                                                             |
|     For optimal performance we recommend to set                             |
|       NCORE = 2 up to number-of-cores-per-socket                            |
|     NCORE specifies how many cores store one orbital (NPAR=cpu/NCORE).      |
|     This setting can greatly improve the performance of VASP for DFT.       |
|     The default, NCORE=1 might be grossly inefficient on modern             |
|     multi-core architectures or massively parallel machines. Do your        |
|     own testing! More info at https://www.vasp.at/wiki/index.php/NCORE      |
|     Unfortunately you need to use the default for GW and RPA                |
|     calculations (for HF NCORE is supported but not extensively tested      |
|     yet).                                                                   |
|                                                                             |
 -----------------------------------------------------------------------------

 POTCAR:    PAW Si_GW 04May2012                   
   VRHFIN =Si: s2p2                                                                                 
   LEXCH  = PE                                                                                      
   EATOM  =   103.0669 eV,    7.5752 Ry                                                             
                                                                                                    
   TITEL  = PAW Si_GW 04May2012                                                                     
   LULTRA =        F    use ultrasoft PP ?                                                          
   IUNSCR =        1    unscreen: 0-lin 1-nonlin 2-no                                               
   RPACOR =    1.500    partial core radius                                                         
   POMASS =   28.085; ZVAL   =    4.000    mass and valenz                                          
   RCORE  =    1.900    outmost cutoff radius                                                       
   RWIGS  =    2.480; RWIGS  =    1.312    wigner-seitz radius (au A)                               
   ENMAX  =  245.345; ENMIN  =  184.009 eV                                                          
   ICORE  =        3    local potential                                                             
   LCOR   =        T    correct aug charges                                                         
   LPAW   =        T    paw PP                                                                      
   EAUG   =  412.952                                                                                
   DEXC   =    0.000                                                                                
   RMAX   =    1.950    core radius for proj-oper                                                   
   RAUG   =    1.300    factor for augmentation sphere                                              
   RDEP   =    1.993    radius for radial grids                                                     
   RDEPT  =    2.000    core radius for aug-charge                                                  
                                                                                                    
   Atomic configuration                                                                             
    7 entries                                                                                       
     n  l   j            E        occ.                                                              
     1  0  0.50     -1785.8828   2.0000                                                             
     2  0  0.50      -139.4969   2.0000                                                             
     2  1  1.50       -95.5546   6.0000                                                             
     3  0  0.50       -10.8127   2.0000                                                             
     3  1  0.50        -4.0811   2.0000                                                             
     3  2  1.50        -4.0817   0.0000                                                             
     4  3  2.50        -4.0817   0.0000                                                             
   Description                                                                                      
     l       E           TYP  RCUT    TYP  RCUT                                                     
     0    -10.8127223     23  1.900                                                                 
     0     95.2407820     23  1.900                                                                 
     1     -4.0811372     23  1.900                                                                 
     1     54.4233040     23  1.900                                                                 
     2     -8.1634956     23  1.900                                                                 
     2     81.6349560     23  1.900                                                                 
     3     27.2116520     23  1.900                                                                 
  local pseudopotential read in
  partial core-charges read in
  partial kinetic energy density read in
  kinetic energy density of atom read in
  atomic valenz-charges read in
  non local Contribution for L=           0  read in
    real space projection operators read in
  non local Contribution for L=           0  read in
    real space projection operators read in
  non local Contribution for L=           1  read in
    real space projection operators read in
  non local Contribution for L=           1  read in
    real space projection operators read in
  non local Contribution for L=           2  read in
    real space projection operators read in
  non local Contribution for L=           2  read in
    real space projection operators read in
    PAW grid and wavefunctions read in
 
   number of l-projection  operators is LMAX  =           6
   number of lm-projection operators is LMMAX =          18
 
 -----------------------------------------------------------------------------
|                                                                             |
|               ----> ADVICE to this user running VASP <----                  |
|                                                                             |
|     You have a (more or less) 'large supercell' and for larger cells it     |
|     might be more efficient to use real-space projection operators.         |
|     Therefore, try LREAL= Auto in the INCAR file.                           |
|     Mind: For very accurate calculation, you might also keep the            |
|     reciprocal projection scheme (i.e. LREAL=.FALSE.).                      |
|                                                                             |
 -----------------------------------------------------------------------------

  PAW Si_GW 04May2012                   :
 energy of atom  1       EATOM= -103.0669
 kinetic energy error for atom=    0.0012 (will be added to EATOM!!)
 
 
 POSCAR: cd:
  positions in direct lattice
  velocities in cartesian coordinates
 exchange correlation table for  LEXCH =        8
   RHO(1)=    0.500       N(1)  =     2000
   RHO(2)=  100.500       N(2)  =     4000
 


--------------------------------------------------------------------------------------------------------


 ion  position               nearest neighbor table
   1  0.198  0.892  0.211-   7 2.32   2 2.47   3 2.48   4 2.48  12 2.81  13 2.82  16 2.83
   2  0.198  0.211  0.892-   5 2.32   1 2.47   3 2.48   4 2.48  14 2.81  15 2.82  16 2.83
   3  0.998  0.988  0.988-  11 2.36  12 2.37  14 2.37   2 2.48   1 2.48
   4  0.525  0.988  0.988-  11 2.36  15 2.37  13 2.37   2 2.48   1 2.48
   5  0.994  0.492  0.020-   2 2.32  12 2.36  13 2.36  16 2.36
   6  0.503  0.498  0.996-  12 2.35  13 2.35  11 2.35  17 2.36
   7  0.994  0.020  0.492-   1 2.32  14 2.36  15 2.36  16 2.36
   8  0.503  0.996  0.498-  14 2.35  15 2.35  11 2.35  17 2.36
   9  0.001  0.509  0.509-  17 2.37  14 2.37  12 2.37  16 2.39
  10  0.480  0.509  0.509-  17 2.37  15 2.37  13 2.37  16 2.39
  11  0.624  0.125  0.125-   6 2.35   8 2.35   3 2.36   4 2.36
  12  0.130  0.614  0.135-   6 2.35   5 2.36   9 2.37   3 2.37   1 2.81
  13  0.620  0.614  0.135-   6 2.35   5 2.36  10 2.37   4 2.37   1 2.82
  14  0.130  0.135  0.614-   8 2.35   7 2.36   9 2.37   3 2.37   2 2.81
  15  0.620  0.135  0.614-   8 2.35   7 2.36  10 2.37   4 2.37   2 2.82
  16  0.103  0.647  0.647-   7 2.36   5 2.36   9 2.39  10 2.39   1 2.83   2 2.83
  17  0.628  0.622  0.622-   6 2.36   8 2.36  10 2.37   9 2.37
 
  LATTYP: Found a face centered cubic cell.
 ALAT       =    10.9394268000
  
  Lattice vectors:
  
 A1 = (   5.4697134000,   5.4697134000,   0.0000000000)
 A2 = (   0.0000000000,   5.4697134000,   5.4697134000)
 A3 = (   5.4697134000,   0.0000000000,   5.4697134000)


Analysis of symmetry for initial positions (statically):
=====================================================================
 Subroutine PRICEL returns:
 Original cell was already a primitive cell.
 

 Routine SETGRP: Setting up the symmetry group for a 
 face centered cubic supercell.


 Subroutine GETGRP returns: Found  2 space group operations
 (whereof  2 operations were pure point group operations)
 out of a pool of 48 trial point group operations.


The static configuration has the point symmetry C_1h.


Analysis of symmetry for dynamics (positions and initial velocities):
=====================================================================
 Subroutine PRICEL returns:
 Original cell was already a primitive cell.
 

 Routine SETGRP: Setting up the symmetry group for a 
 face centered cubic supercell.


 Subroutine GETGRP returns: Found  2 space group operations
 (whereof  2 operations were pure point group operations)
 out of a pool of 48 trial point group operations.


The dynamic configuration has the point symmetry C_1h.


 Subroutine INISYM returns: Found  2 space group operations
 (whereof  2 operations are pure point group operations),
 and found     1 'primitive' translations


----------------------------------------------------------------------------------------

                                     Primitive cell                                     

  volume of cell :     327.2832

  direct lattice vectors                    reciprocal lattice vectors
     5.469713400  5.469713400  0.000000000     0.091412468  0.091412468 -0.091412468
     0.000000000  5.469713400  5.469713400    -0.091412468  0.091412468  0.091412468
     5.469713400  0.000000000  5.469713400     0.091412468 -0.091412468  0.091412468

  length of vectors
     7.735342873  7.735342873  7.735342873     0.158331039  0.158331039  0.158331039

  position of ions in fractional coordinates (direct lattice)
     0.198285643  0.891589348  0.210613020
     0.198285643  0.210613020  0.891589348
     0.997890964  0.987789370  0.987789370
     0.525314110  0.987807833  0.987807833
     0.993644526  0.491926461  0.019628202
     0.502719025  0.497636860  0.995727484
     0.993644526  0.019628202  0.491926461
     0.502719025  0.995727484  0.497636860
     0.001405266  0.508714001  0.508714001
     0.480057771  0.508698697  0.508698697
     0.624496803  0.124920229  0.124920229
     0.130456169  0.614161343  0.134590713
     0.619632724  0.614146016  0.134572489
     0.130456169  0.134590713  0.614161343
     0.619632724  0.134572489  0.614146016
     0.102684857  0.646755533  0.646755533
     0.627674055  0.621722401  0.621722401

  ion indices of the primitive-cell ions
   primitive index   ion index
                 1           1
                 2           2
                 3           3
                 4           4
                 5           5
                 6           6
                 7           7
                 8           8
                 9           9
                10          10
                11          11
                12          12
                13          13
                14          14
                15          15
                16          16
                17          17

----------------------------------------------------------------------------------------

 
 
 KPOINTS: Automatic mesh                          

Automatic generation of k-mesh.
 Grid dimensions read from file:
 generate k-points for:    1    1    1

 Generating k-lattice:

  Cartesian coordinates                     Fractional coordinates (reciprocal lattice)
     0.091412468  0.091412468 -0.091412468     1.000000000  0.000000000  0.000000000
    -0.091412468  0.091412468  0.091412468     0.000000000  1.000000000 -0.000000000
     0.091412468 -0.091412468  0.091412468    -0.000000000 -0.000000000  1.000000000

  Length of vectors
     0.158331039  0.158331039  0.158331039

  Shift w.r.t. Gamma in fractional coordinates (k-lattice)
     0.000000000  0.000000000  0.000000000

 
 Subroutine IBZKPT returns following result:
 ===========================================
 
 Found      1 irreducible k-points:
 
 Following reciprocal coordinates:
            Coordinates               Weight
  0.000000  0.000000  0.000000      1.000000
 
 Following cartesian coordinates:
            Coordinates               Weight
  0.000000  0.000000  0.000000      1.000000
 
 
 Subroutine IBZKPT_HF returns following result:
 ==============================================
 
 Found      1 k-points in 1st BZ
 the following      1 k-points will be used (e.g. in the exchange kernel)
 Following reciprocal coordinates:   # in IRBZ
  0.000000  0.000000  0.000000    1.00000000   1 t-inv F


--------------------------------------------------------------------------------------------------------




 Dimension of arrays:
   k-points           NKPTS =      1   k-points in BZ     NKDIM =      1   number of bands    NBANDS=    384
   number of dos      NEDOS =    301   number of ions     NIONS =     17
   non local maximal  LDIM  =      6   non local SUM 2l+1 LMDIM =     18
   total plane-waves  NPLWV =  64000
   max r-space proj   IRMAX =      1   max aug-charges    IRDMAX=   9797
   dimension x,y,z NGX =    40 NGY =   40 NGZ =   40
   dimension x,y,z NGXF=    80 NGYF=   80 NGZF=   80
   support grid    NGXF=    80 NGYF=   80 NGZF=   80
   ions per type =              17
   NGX,Y,Z   is equivalent  to a cutoff of   8.60,  8.60,  8.60 a.u.
   NGXF,Y,Z  is equivalent  to a cutoff of  17.19, 17.19, 17.19 a.u.

 SYSTEM =  unknown system                          
 POSCAR =  cd:                                     

 Startparameter for this run:
   NWRITE =      2    write-flag & timer
   PREC   = normal    normal or accurate (medium, high low for compatibility)
   ISTART =      1    job   : 0-new  1-cont  2-samecut
   ICHARG =      0    charge: 1-file 2-atom 10-const
   ISPIN  =      1    spin polarized calculation?
   LNONCOLLINEAR =      F non collinear calculations
   LSORBIT =      F    spin-orbit coupling
   INIWAV =      1    electr: 0-lowe 1-rand  2-diag
   LASPH  =      F    aspherical Exc in radial PAW
 Electronic Relaxation 1
   ENCUT  =  400.0 eV  29.40 Ry    5.42 a.u.  12.61 12.61 12.61*2*pi/ulx,y,z
   ENINI  =  400.0     initial cutoff
   ENAUG  =  413.0 eV  augmentation charge cutoff
   NELM   =     60;   NELMIN=  2; NELMDL=  0     # of ELM steps 
   EDIFF  = 0.1E-05   stopping-criterion for ELM
   LREAL  =      F    real-space projection
   NLSPLINE    = F    spline interpolate recip. space projectors
   LCOMPAT=      F    compatible to vasp.4.4
   GGA_COMPAT  = T    GGA compatible to vasp.4.4-vasp.4.6
   LMAXPAW     = -100 max onsite density
   LMAXMIX     =    2 max onsite mixed and CHGCAR
   VOSKOWN=      0    Vosko Wilk Nusair interpolation
   ROPT   =    0.00000
 Ionic relaxation
   EDIFFG = 0.1E-04   stopping-criterion for IOM
   NSW    =      0    number of steps for IOM
   NBLOCK =      1;   KBLOCK =      1    inner block; outer block 
   IBRION =     -1    ionic relax: 0-MD 1-quasi-New 2-CG
   NFREE  =      0    steps in history (QN), initial steepest desc. (CG)
   ISIF   =      0    stress and relaxation
   IWAVPR =     10    prediction:  0-non 1-charg 2-wave 3-comb
   ISYM   =      3    0-nonsym 1-usesym 2-fastsym
   LCORR  =      T    Harris-Foulkes like correction to forces

   POTIM  = 0.5000    time-step for ionic-motion
   TEIN   =    0.0    initial temperature
   TEBEG  =    0.0;   TEEND  =   0.0 temperature during run
   SMASS  =  -3.00    Nose mass-parameter (am)
   estimated Nose-frequenzy (Omega)   =  0.10E-29 period in steps = 0.13E+47 mass=  -0.137E-26a.u.
   SCALEE = 1.0000    scale energy and forces
   NPACO  =    256;   APACO  = 10.0  distance and # of slots for P.C.
   PSTRESS=    0.0 pullay stress

  Mass of Ions in am
   POMASS =  28.09
  Ionic Valenz
   ZVAL   =   4.00
  Atomic Wigner-Seitz radii
   RWIGS  =  -1.00
  virtual crystal weights 
   VCA    =   1.00
   NELECT =      68.0000    total number of electrons
   NUPDOWN=      -1.0000    fix difference up-down

 DOS related values:
   EMIN   =  10.00;   EMAX   =-10.00  energy-range for DOS
   EFERMI =   0.00
   ISMEAR =     1;   SIGMA  =   0.00  broadening in eV -4-tet -1-fermi 0-gaus

 Electronic relaxation 2 (details)
   IALGO  =     58    algorithm
   LDIAG  =      T    sub-space diagonalisation (order eigenvalues)
   LSUBROT=      F    optimize rotation matrix (better conditioning)
   TURBO    =      0    0=normal 1=particle mesh
   IRESTART =      0    0=no restart 2=restart with 2 vectors
   NREBOOT  =      0    no. of reboots
   NMIN     =      0    reboot dimension
   EREF     =   0.00    reference energy to select bands
   IMIX   =      4    mixing-type and parameters
     AMIX     =   0.40;   BMIX     =  1.00
     AMIX_MAG =   1.60;   BMIX_MAG =  1.00
     AMIN     =   0.10
     WC   =   100.;   INIMIX=   1;  MIXPRE=   1;  MAXMIX= -45

 Intra band minimization:
   WEIMIN = 0.0000     energy-eigenvalue tresh-hold
   EBREAK =  0.65E-09  absolut break condition
   DEPER  =   0.30     relativ break condition  

   TIME   =   0.40     timestep for ELM

  volume/ion in A,a.u.               =      19.25       129.92
  Fermi-wavevector in a.u.,A,eV,Ry     =   0.969624  1.832323 12.791792  0.940170
  Thomas-Fermi vector in A             =   2.099692
 
 Write flags
   LWAVE        =      T    write WAVECAR
   LDOWNSAMPLE  =      F    k-point downsampling of WAVECAR
   LCHARG       =      T    write CHGCAR
   LVTOT        =      F    write LOCPOT, total local potential
   LVHAR        =      F    write LOCPOT, Hartree potential only
   LELF         =      F    write electronic localiz. function (ELF)
   LORBIT       =      0    0 simple, 1 ext, 2 COOP (PROOUT), +10 PAW based schemes


 Dipole corrections
   LMONO  =      F    monopole corrections only (constant potential shift)
   LDIPOL =      F    correct potential (dipole corrections)
   IDIPOL =      0    1-x, 2-y, 3-z, 4-all directions 
   EPSILON=  1.0000000 bulk dielectric constant

 Exchange correlation treatment:
   GGA     =    --    GGA type
   LEXCH   =     8    internal setting for exchange type
   LIBXC   =     F    Libxc                    
   VOSKOWN =     0    Vosko Wilk Nusair interpolation
   EXXOEP  =     0    0=HF, 1=EXX-LHF (local Hartree Fock) 2=EXX OEP
   LHFCALC =     T    Hartree Fock is set to
   LSYMGRAD=     F    symmetrize gradient (conserves proper symmetry)
   PRECFOCK=normal    Normal, Fast or Accurate (Low or Medium for compatibility)
   LRHFCALC=     F    long range Hartree Fock
   LRSCOR  =     F    long range correlation only (use DFT for short range part)
   LTHOMAS =     F    Thomas Fermi screening in HF
   LMODELHF=     F    short range full HF, long range fraction AEXX
   LFOCKACE=     T    use Adeptively-Compressed-Exchange operator
   ENCUT4O =  -1.0   cutoff for four orbital integrals eV
   LMAXFOCK=     4    L truncation for augmentation on plane wave grid
   LMAXFOCKAE=  -1    L truncation for all-electron charge restoration on plane wave grid
   NMAXFOCKAE=   1    number of basis functions for all-electron charge restoration
   LFOCKAEDFT=     F  apply the AE augmentation even for DFT
   NKREDX  =     1    reduce k-point grid by
   NKREDY  =     1    reduce k-point grid by
   NKREDZ  =     1    reduce k-point grid by
   SHIFTRED=     F    shift reduced grid of Gamma
   HFKIDENT=     F    idential grid for each k-point
   ODDONLY =     F    use only odd q-grid points
   EVENONLY=     F    use only even q-grid points
   HFALPHA =   -1.0000 decay constant for conv. correction
   MCALPHA =    0.0000 extent of test-charge in conv. correction in multipole expansion
   AEXX    =    1.0000 exact exchange contribution
   HFSCREEN=    0.0000 screening length (either q_TF or 0.3 A-1)
   HFSCREENC=   0.0000 screening length for correlation (either q_TF or 0.3 A-1)
   HFRCUT  =    0.0000 spherical cutoff for potential kernel
   ALDAX   =    0.0000 LDA exchange part
   AGGAX   =    0.0000 GGA exchange part
   ALDAC   =    0.0000 LDA correlation
   AGGAC   =    0.0000 GGA correlation
   ENCUTFOCK=  -1.0 apply spherical cutoff to Coloumb kernel
   NBANDSGWLOW=     1    first orbital included in HF term
   NBLOCK_FOCK=    64    blocking factor in FOCK_ACC

 Linear response parameters
   LEPSILON=     F    determine dielectric tensor
   LRPA    =     F    only Hartree local field effects (RPA)
   LNABLA  =     F    use nabla operator in PAW spheres
   LVEL    =     F    velocity operator in full k-point grid
   CSHIFT  =0.1000    complex shift for real part using Kramers Kronig
   OMEGAMAX=  -1.0    maximum frequency
   DEG_THRESHOLD= 0.2000000E-02 threshold for treating states as degnerate
   RTIME   =   -0.100 relaxation time in fs
  (WPLASMAI=    0.000 imaginary part of plasma frequency in eV, 0.658/RTIME)
   DFIELD  = 0.0000000 0.0000000 0.0000000 field for delta impulse in time
 
  Optional k-point grid parameters
   LKPOINTS_OPT  =     F    use optional k-point grid
   KPOINTS_OPT_MODE=     1    mode for optional k-point grid
 
 Orbital magnetization related:
   ORBITALMAG=     F  switch on orbital magnetization
   LCHIMAG   =     F  perturbation theory with respect to B field
   DQ        =  0.001000  dq finite difference perturbation B field
   LLRAUG    =     F  two centre corrections for induced B field



--------------------------------------------------------------------------------------------------------


 Static calculation
 charge density and potential will be updated during run
 non-spin polarized calculation
 Conjugate gradient for all bands (Freysoldt, et al. PRB 79, 241103 (2009))
 preconditioned conjugated gradient                                        
 perform sub-space diagonalisation
    before iterative eigenvector-optimisation
 modified Broyden-mixing scheme, WC =      100.0
 initial mixing is a Kerker type mixing with AMIX =  0.4000 and BMIX =      1.0000
 Hartree-type preconditioning will be used
 using additional bands          350
 reciprocal scheme for non local part
 use partial core corrections
 no Harris-corrections to forces 
 use gradient corrections 
 use of overlap-Matrix (Vanderbilt PP)
 Methfessel and Paxton  Order N= 1 SIGMA  =   0.00


--------------------------------------------------------------------------------------------------------


  energy-cutoff  :      400.00
  volume of cell :      327.28
      direct lattice vectors                 reciprocal lattice vectors
     5.469713400  5.469713400  0.000000000     0.091412468  0.091412468 -0.091412468
     0.000000000  5.469713400  5.469713400    -0.091412468  0.091412468  0.091412468
     5.469713400  0.000000000  5.469713400     0.091412468 -0.091412468  0.091412468

  length of vectors
     7.735342873  7.735342873  7.735342873     0.158331039  0.158331039  0.158331039


 
 old parameters found on file WAVECAR:
  energy-cutoff  :      400.00
  volume of cell :      327.28
      direct lattice vectors                 reciprocal lattice vectors
     5.469713400  5.469713400  0.000000000     0.091412468  0.091412468 -0.091412468
     0.000000000  5.469713400  5.469713400    -0.091412468  0.091412468  0.091412468
     5.469713400  0.000000000  5.469713400     0.091412468 -0.091412468  0.091412468

  length of vectors

 
 k-points in units of 2pi/SCALE and weight: Automatic mesh                          
   0.00000000  0.00000000  0.00000000       1.000
 
 k-points in reciprocal lattice and weights: Automatic mesh                          
   0.00000000  0.00000000  0.00000000       1.000
 
 position of ions in fractional coordinates (direct lattice) 
   0.19828564  0.89158935  0.21061302
   0.19828564  0.21061302  0.89158935
   0.99789096  0.98778937  0.98778937
   0.52531411  0.98780783  0.98780783
   0.99364453  0.49192646  0.01962820
   0.50271903  0.49763686  0.99572748
   0.99364453  0.01962820  0.49192646
   0.50271903  0.99572748  0.49763686
   0.00140527  0.50871400  0.50871400
   0.48005777  0.50869870  0.50869870
   0.62449680  0.12492023  0.12492023
   0.13045617  0.61416134  0.13459071
   0.61963272  0.61414602  0.13457249
   0.13045617  0.13459071  0.61416134
   0.61963272  0.13457249  0.61414602
   0.10268486  0.64675553  0.64675553
   0.62767406  0.62172240  0.62172240
 
 position of ions in cartesian coordinates  (Angst):
   2.23655849  5.96130384  6.02873106
   5.96130384  2.23655849  6.02873106
  10.86110233 10.86110233 10.80584951
   8.27634337  8.27634337 10.80605148
   5.54231142  8.12564753  2.79805740
   8.19607295  5.47165999  8.16827497
   8.12564753  5.54231142  2.79805740
   5.47165999  8.19607295  8.16827497
   2.79020619  2.79020619  5.56503957
   5.40821450  5.40821450  5.56487216
   4.09909638  4.09909638  1.36655570
   1.44973048  4.07284438  4.09545916
   4.12528636  6.74841611  4.09527564
   4.07284438  1.44973048  4.09545916
   6.74841611  4.12528636  4.09527564
   4.09922414  4.09922414  7.07513481
   6.83384054  6.83384054  6.80128670
 


--------------------------------------------------------------------------------------------------------


 use serial FFT for orbitals x direction half grid
 k-point   1 :   0.0000 0.0000 0.0000  plane waves:    2981

 maximum and minimum number of plane-waves per node :      2981     2981

 maximum number of plane-waves:      2981
 maximum index in each direction: 
   IXMAX=   12   IYMAX=   12   IZMAX=   12
   IXMIN=    0   IYMIN=  -10   IZMIN=  -10


 serial   3D FFT for wavefunctions
 parallel 3D FFT for charge:
    minimum data exchange during FFTs selected (reduces bandwidth)

 
 Radii for the augmentation spheres in the non-local exchange
 for species   1 augmentation radius   1.405 (default was   1.124)
       energy cutoff for augmentation   1600.0
 Maximum index for augmentation-charges in exchange         2293
  SETUP_FOCK is finished

 total amount of memory used by VASP MPI-rank0    43589. kBytes
=======================================================================

   base      :      30000. kBytes
   nonl-proj :       1277. kBytes
   fftplans  :        558. kBytes
   grid      :       2897. kBytes
   one-center:        132. kBytes
   HF        :         64. kBytes
   nonlr-proj:       8505. kBytes
   wavefun   :        156. kBytes
 
     INWAV:  cpu time      0.1968: real time      0.1974
 Broyden mixing: mesh for mixing (old mesh)
   NGX = 25   NGY = 25   NGZ = 25
  (NGX  = 80   NGY  = 80   NGZ  = 80)
  gives a total of  15625 points

 charge density for first step will be calculated from the start-wavefunctions


--------------------------------------------------------------------------------------------------------


 Maximum index for augmentation-charges          499 (set IRDMAX)


--------------------------------------------------------------------------------------------------------


 initial charge from wavefunction
    FEWALD:  cpu time      0.0074: real time      0.0074


--------------------------------------- Iteration      1(   1)  ---------------------------------------


    POTLOK:  cpu time      0.1849: real time      0.1857
    SETDIJ:  cpu time      0.0364: real time      0.0366
    TRIAL :  cpu time      6.5251: real time      6.5441
    CORREC:  cpu time      5.5048: real time      5.5202
    CHARGE:  cpu time      0.0631: real time      0.0632
    --------------------------------------------
      LOOP:  cpu time     12.3154: real time     12.3512

 eigenvalue-minimisations  :     0
 total energy-change (2. order) :-0.1443789E+03  (-0.9356357E+00)
 number of electron      67.9999998 magnetization 
 augmentation part       -3.9630900 magnetization 

 Free energy of the ion-electron system (eV)
  ---------------------------------------------------
  alpha Z        PSCENC =        53.80049087
  Ewald energy   TEWEN  =     -1963.41543283
  -Hartree energ DENC   =      -136.47977913
  -exchange      EXHF   =       498.16367609
  -V(xc)+E(xc)   XCENC  =         0.00000000
  PAW double counting   =      2032.27321520    -2036.56252453
  entropy T*S    EENTRO =         0.00000000
  eigenvalues    EBANDS =      -191.35716781
  atomic energy  EATOM  =      1599.19861851
  ---------------------------------------------------
  free energy    TOTEN  =      -144.37890364 eV

  energy without entropy =     -144.37890364  energy(sigma->0) =     -144.37890364
  exchange ACFDT corr.  =         0.00000000  see jH, gK, PRB 81, 115126


--------------------------------------------------------------------------------------------------------




--------------------------------------- Iteration      1(   2)  ---------------------------------------


    POTLOK:  cpu time      0.2039: real time      0.2044
    SETDIJ:  cpu time      0.0157: real time      0.0158
    TRIAL :  cpu time      5.3556: real time      5.3701
    CORREC:  cpu time      5.6452: real time      5.6602
    CHARGE:  cpu time      0.0634: real time      0.0636
    --------------------------------------------
      LOOP:  cpu time     11.2940: real time     11.3251

 eigenvalue-minimisations  :     0
 total energy-change (2. order) :-0.9162375E+00  (-0.1394679E+01)
 number of electron      67.9999998 magnetization 
 augmentation part       -3.8440347 magnetization 

 Free energy of the ion-electron system (eV)
  ---------------------------------------------------
  alpha Z        PSCENC =        53.80049087
  Ewald energy   TEWEN  =     -1963.41543283
  -Hartree energ DENC   =      -136.98671476
  -exchange      EXHF   =       499.26209317
  -V(xc)+E(xc)   XCENC  =         0.00000000
  PAW double counting   =      2130.29063240    -2134.37935924
  entropy T*S    EENTRO =         0.00000000
  eigenvalues    EBANDS =      -193.06546930
  atomic energy  EATOM  =      1599.19861851
  ---------------------------------------------------
  free energy    TOTEN  =      -145.29514117 eV

  energy without entropy =     -145.29514117  energy(sigma->0) =     -145.29514117
  exchange ACFDT corr.  =         0.00000000  see jH, gK, PRB 81, 115126


--------------------------------------------------------------------------------------------------------




--------------------------------------- Iteration      1(   3)  ---------------------------------------


    POTLOK:  cpu time      0.2067: real time      0.2074
    SETDIJ:  cpu time      0.0555: real time      0.0556
    TRIAL :  cpu time      5.3508: real time      5.3652
    CORREC:  cpu time      5.5804: real time      5.5954
    CHARGE:  cpu time      0.0240: real time      0.0241
    --------------------------------------------
      LOOP:  cpu time     11.2246: real time     11.2577

 eigenvalue-minimisations  :     0
 total energy-change (2. order) :-0.1597806E+01  (-0.2575104E+00)
 number of electron      67.9999998 magnetization 
 augmentation part       -3.7849766 magnetization 

 Free energy of the ion-electron system (eV)
  ---------------------------------------------------
  alpha Z        PSCENC =        53.80049087
  Ewald energy   TEWEN  =     -1963.41543283
  -Hartree energ DENC   =      -137.38197694
  -exchange      EXHF   =       501.23209601
  -V(xc)+E(xc)   XCENC  =         0.00000000
  PAW double counting   =      2210.60486682    -2214.51818977
  entropy T*S    EENTRO =         0.00000000
  eigenvalues    EBANDS =      -196.41342033
  atomic energy  EATOM  =      1599.19861851
  ---------------------------------------------------
  free energy    TOTEN  =      -146.89294766 eV

  energy without entropy =     -146.89294766  energy(sigma->0) =     -146.89294766
  exchange ACFDT corr.  =         0.00000000  see jH, gK, PRB 81, 115126


--------------------------------------------------------------------------------------------------------




--------------------------------------- Iteration      1(   4)  ---------------------------------------


    POTLOK:  cpu time      0.2061: real time      0.2066
    SETDIJ:  cpu time      0.0160: real time      0.0161
    TRIAL :  cpu time      5.4849: real time      5.4996
    CORREC:  cpu time      5.5607: real time      5.5755
    CHARGE:  cpu time      0.0243: real time      0.0245
    --------------------------------------------
      LOOP:  cpu time     11.2966: real time     11.3269

 eigenvalue-minimisations  :     0
 total energy-change (2. order) :-0.2632945E+00  (-0.4021618E+00)
 number of electron      67.9999998 magnetization 
 augmentation part       -3.7509458 magnetization 

 Free energy of the ion-electron system (eV)
  ---------------------------------------------------
  alpha Z        PSCENC =        53.80049087
  Ewald energy   TEWEN  =     -1963.41543283
  -Hartree energ DENC   =      -137.65877250
  -exchange      EXHF   =       501.96640399
  -V(xc)+E(xc)   XCENC  =         0.00000000
  PAW double counting   =      2198.55720222    -2202.48105217
  entropy T*S    EENTRO =         0.00000000
  eigenvalues    EBANDS =      -197.12370025
  atomic energy  EATOM  =      1599.19861851
  ---------------------------------------------------
  free energy    TOTEN  =      -147.15624216 eV

  energy without entropy =     -147.15624216  energy(sigma->0) =     -147.15624216
  exchange ACFDT corr.  =         0.00000000  see jH, gK, PRB 81, 115126


--------------------------------------------------------------------------------------------------------




--------------------------------------- Iteration      1(   5)  ---------------------------------------


    POTLOK:  cpu time      0.1976: real time      0.1980
    SETDIJ:  cpu time      0.0161: real time      0.0161
    TRIAL :  cpu time      5.4031: real time      5.4205
    CORREC:  cpu time      5.6224: real time      5.6374
    CHARGE:  cpu time      0.0239: real time      0.0240
    --------------------------------------------
      LOOP:  cpu time     11.2704: real time     11.3034

 eigenvalue-minimisations  :     0
 total energy-change (2. order) :-0.4413292E+00  (-0.7015702E-01)
 number of electron      67.9999998 magnetization 
 augmentation part       -3.7623697 magnetization 

 Free energy of the ion-electron system (eV)
  ---------------------------------------------------
  alpha Z        PSCENC =        53.80049087
  Ewald energy   TEWEN  =     -1963.41543283
  -Hartree energ DENC   =      -138.18156623
  -exchange      EXHF   =       503.61308495
  -V(xc)+E(xc)   XCENC  =         0.00000000
  PAW double counting   =      2237.93600230    -2241.74172028
  entropy T*S    EENTRO =         0.00000000
  eigenvalues    EBANDS =      -198.80704862
  atomic energy  EATOM  =      1599.19861851
  ---------------------------------------------------
  free energy    TOTEN  =      -147.59757133 eV

  energy without entropy =     -147.59757133  energy(sigma->0) =     -147.59757133
  exchange ACFDT corr.  =         0.00000000  see jH, gK, PRB 81, 115126


--------------------------------------------------------------------------------------------------------




--------------------------------------- Iteration      1(   6)  ---------------------------------------


    POTLOK:  cpu time      0.1863: real time      0.1867
    SETDIJ:  cpu time      0.0143: real time      0.0143
    TRIAL :  cpu time      5.5187: real time      5.5456
    CORREC:  cpu time      5.6805: real time      5.6957
    CHARGE:  cpu time      0.1019: real time      0.1021
    --------------------------------------------
      LOOP:  cpu time     11.5122: real time     11.5561

 eigenvalue-minimisations  :     0
 total energy-change (2. order) :-0.7063892E-01  (-0.1677250E+00)
 number of electron      67.9999998 magnetization 
 augmentation part       -3.7570265 magnetization 

 Free energy of the ion-electron system (eV)
  ---------------------------------------------------
  alpha Z        PSCENC =        53.80049087
  Ewald energy   TEWEN  =     -1963.41543283
  -Hartree energ DENC   =      -138.60245629
  -exchange      EXHF   =       504.11186162
  -V(xc)+E(xc)   XCENC  =         0.00000000
  PAW double counting   =      2237.67398789    -2241.46187803
  entropy T*S    EENTRO =         0.00000000
  eigenvalues    EBANDS =      -198.97340199
  atomic energy  EATOM  =      1599.19861851
  ---------------------------------------------------
  free energy    TOTEN  =      -147.66821025 eV

  energy without entropy =     -147.66821025  energy(sigma->0) =     -147.66821025
  exchange ACFDT corr.  =         0.00000000  see jH, gK, PRB 81, 115126


--------------------------------------------------------------------------------------------------------




--------------------------------------- Iteration      1(   7)  ---------------------------------------


    POTLOK:  cpu time      0.1968: real time      0.1973
    SETDIJ:  cpu time      0.0164: real time      0.0164
    TRIAL :  cpu time      5.5718: real time      5.5872
    CORREC:  cpu time      5.5631: real time      5.5779
    CHARGE:  cpu time      0.0630: real time      0.0631
    --------------------------------------------
      LOOP:  cpu time     11.4186: real time     11.4495

 eigenvalue-minimisations  :     0
 total energy-change (2. order) :-0.1703507E+00  (-0.2985090E-01)
 number of electron      67.9999998 magnetization 
 augmentation part       -3.7528482 magnetization 

 Free energy of the ion-electron system (eV)
  ---------------------------------------------------
  alpha Z        PSCENC =        53.80049087
  Ewald energy   TEWEN  =     -1963.41543283
  -Hartree energ DENC   =      -140.29763760
  -exchange      EXHF   =       505.71714071
  -V(xc)+E(xc)   XCENC  =         0.00000000
  PAW double counting   =      2176.25193496    -2180.10086505
  entropy T*S    EENTRO =         0.00000000
  eigenvalues    EBANDS =      -198.99281052
  atomic energy  EATOM  =      1599.19861851
  ---------------------------------------------------
  free energy    TOTEN  =      -147.83856096 eV

  energy without entropy =     -147.83856096  energy(sigma->0) =     -147.83856096
  exchange ACFDT corr.  =         0.00000000  see jH, gK, PRB 81, 115126


--------------------------------------------------------------------------------------------------------




--------------------------------------- Iteration      1(   8)  ---------------------------------------


    POTLOK:  cpu time      0.1944: real time      0.1949
    SETDIJ:  cpu time      0.0168: real time      0.0169
    TRIAL :  cpu time      5.4150: real time      5.4296
    CORREC:  cpu time     22.2831: real time     22.3451
    CHARGE:  cpu time      0.0238: real time      0.0239
    --------------------------------------------
      LOOP:  cpu time     27.9406: real time     28.0178

 eigenvalue-minimisations  :     0
 total energy-change (2. order) :-0.2981918E-01  (-0.1867281E-03)
 number of electron      67.9999998 magnetization 
 augmentation part       -3.7522927 magnetization 

 Free energy of the ion-electron system (eV)
  ---------------------------------------------------
  alpha Z        PSCENC =        53.80049087
  Ewald energy   TEWEN  =     -1963.41543283
  -Hartree energ DENC   =      -140.68808689
  -exchange      EXHF   =       506.04130342
  -V(xc)+E(xc)   XCENC  =         0.00000000
  PAW double counting   =      2168.44285584    -2172.30629123
  entropy T*S    EENTRO =         0.00000000
  eigenvalues    EBANDS =      -198.94183783
  atomic energy  EATOM  =      1599.19861851
  ---------------------------------------------------
  free energy    TOTEN  =      -147.86838014 eV

  energy without entropy =     -147.86838014  energy(sigma->0) =     -147.86838014
  exchange ACFDT corr.  =         0.00000000  see jH, gK, PRB 81, 115126


--------------------------------------------------------------------------------------------------------




--------------------------------------- Iteration      1(   9)  ---------------------------------------


    POTLOK:  cpu time      0.1892: real time      0.1896
    SETDIJ:  cpu time      0.0155: real time      0.0155
    TRIAL :  cpu time      5.4688: real time      5.4872
    CORREC:  cpu time      5.5415: real time      5.5565
    CHARGE:  cpu time      0.0631: real time      0.0632
    --------------------------------------------
      LOOP:  cpu time     11.2853: real time     11.3194

 eigenvalue-minimisations  :     0
 total energy-change (2. order) :-0.6764821E-01  (-0.1139027E-01)
 number of electron      67.9999998 magnetization 
 augmentation part       -3.7523237 magnetization 

 Free energy of the ion-electron system (eV)
  ---------------------------------------------------
  alpha Z        PSCENC =        53.80049087
  Ewald energy   TEWEN  =     -1963.41543283
  -Hartree energ DENC   =      -142.90164247
  -exchange      EXHF   =       507.62137979
  -V(xc)+E(xc)   XCENC  =         0.00000000
  PAW double counting   =      2211.60102635    -2215.47346486
  entropy T*S    EENTRO =         0.00000000
  eigenvalues    EBANDS =      -198.36700370
  atomic energy  EATOM  =      1599.19861851
  ---------------------------------------------------
  free energy    TOTEN  =      -147.93602834 eV

  energy without entropy =     -147.93602834  energy(sigma->0) =     -147.93602834
  exchange ACFDT corr.  =         0.00000000  see jH, gK, PRB 81, 115126


--------------------------------------------------------------------------------------------------------




--------------------------------------- Iteration      1(  10)  ---------------------------------------


    POTLOK:  cpu time      0.1874: real time      0.1879
    SETDIJ:  cpu time      0.0161: real time      0.0161
    TRIAL :  cpu time      5.3725: real time      5.3868
    CORREC:  cpu time      5.7540: real time      5.7695
    CHARGE:  cpu time      0.1010: real time      0.1012
    --------------------------------------------
      LOOP:  cpu time     11.4413: real time     11.4728

 eigenvalue-minimisations  :     0
 total energy-change (2. order) :-0.1416558E-01  (-0.2237887E-01)
 number of electron      67.9999998 magnetization 
 augmentation part       -3.7522617 magnetization 

 Free energy of the ion-electron system (eV)
  ---------------------------------------------------
  alpha Z        PSCENC =        53.80049087
  Ewald energy   TEWEN  =     -1963.41543283
  -Hartree energ DENC   =      -143.37984319
  -exchange      EXHF   =       507.96062861
  -V(xc)+E(xc)   XCENC  =         0.00000000
  PAW double counting   =      2220.54213142    -2224.41826277
  entropy T*S    EENTRO =         0.00000000
  eigenvalues    EBANDS =      -198.23852454
  atomic energy  EATOM  =      1599.19861851
  ---------------------------------------------------
  free energy    TOTEN  =      -147.95019392 eV

  energy without entropy =     -147.95019392  energy(sigma->0) =     -147.95019392
  exchange ACFDT corr.  =         0.00000000  see jH, gK, PRB 81, 115126


--------------------------------------------------------------------------------------------------------




--------------------------------------- Iteration      1(  11)  ---------------------------------------


    POTLOK:  cpu time      0.1881: real time      0.1886
    SETDIJ:  cpu time      0.0171: real time      0.0171
    TRIAL :  cpu time      5.3041: real time      5.3184
    CORREC:  cpu time      5.6290: real time      5.6441
    CHARGE:  cpu time      0.0242: real time      0.0243
    --------------------------------------------
      LOOP:  cpu time     11.1708: real time     11.2008

 eigenvalue-minimisations  :     0
 total energy-change (2. order) :-0.2218252E-01  (-0.7424892E-02)
 number of electron      67.9999998 magnetization 
 augmentation part       -3.7522777 magnetization 

 Free energy of the ion-electron system (eV)
  ---------------------------------------------------
  alpha Z        PSCENC =        53.80049087
  Ewald energy   TEWEN  =     -1963.41543283
  -Hartree energ DENC   =      -143.78137396
  -exchange      EXHF   =       508.24270464
  -V(xc)+E(xc)   XCENC  =         0.00000000
  PAW double counting   =      2228.11266420    -2231.99373949
  entropy T*S    EENTRO =         0.00000000
  eigenvalues    EBANDS =      -198.13630837
  atomic energy  EATOM  =      1599.19861851
  ---------------------------------------------------
  free energy    TOTEN  =      -147.97237645 eV

  energy without entropy =     -147.97237645  energy(sigma->0) =     -147.97237645
  exchange ACFDT corr.  =         0.00000000  see jH, gK, PRB 81, 115126


--------------------------------------------------------------------------------------------------------




--------------------------------------- Iteration      1(  12)  ---------------------------------------


    POTLOK:  cpu time      0.1997: real time      0.2002
    SETDIJ:  cpu time      0.0156: real time      0.0156
    TRIAL :  cpu time      5.5315: real time      5.5465
    CORREC:  cpu time      5.5667: real time      5.5816
    CHARGE:  cpu time      0.0238: real time      0.0239
    --------------------------------------------
      LOOP:  cpu time     11.3445: real time     11.3751

 eigenvalue-minimisations  :     0
 total energy-change (2. order) :-0.7109323E-02  (-0.6687361E-02)
 number of electron      67.9999998 magnetization 
 augmentation part       -3.7532893 magnetization 

 Free energy of the ion-electron system (eV)
  ---------------------------------------------------
  alpha Z        PSCENC =        53.80049087
  Ewald energy   TEWEN  =     -1963.41543283
  -Hartree energ DENC   =      -143.83242694
  -exchange      EXHF   =       508.28082607
  -V(xc)+E(xc)   XCENC  =         0.00000000
  PAW double counting   =      2229.37607723    -2233.26019966
  entropy T*S    EENTRO =         0.00000000
  eigenvalues    EBANDS =      -198.12743902
  atomic energy  EATOM  =      1599.19861851
  ---------------------------------------------------
  free energy    TOTEN  =      -147.97948577 eV

  energy without entropy =     -147.97948577  energy(sigma->0) =     -147.97948577
  exchange ACFDT corr.  =         0.00000000  see jH, gK, PRB 81, 115126


--------------------------------------------------------------------------------------------------------




--------------------------------------- Iteration      1(  13)  ---------------------------------------


    POTLOK:  cpu time      0.1944: real time      0.1948
    SETDIJ:  cpu time      0.0143: real time      0.0143
    TRIAL :  cpu time      5.3268: real time      5.3411
    CORREC:  cpu time      5.5161: real time      5.5310
    CHARGE:  cpu time      0.0633: real time      0.0634
    --------------------------------------------
      LOOP:  cpu time     11.1220: real time     11.1519

 eigenvalue-minimisations  :     0
 total energy-change (2. order) :-0.6486596E-02  (-0.1064838E-01)
 number of electron      67.9999998 magnetization 
 augmentation part       -3.7565317 magnetization 

 Free energy of the ion-electron system (eV)
  ---------------------------------------------------
  alpha Z        PSCENC =        53.80049087
  Ewald energy   TEWEN  =     -1963.41543283
  -Hartree energ DENC   =      -143.73355751
  -exchange      EXHF   =       508.22265271
  -V(xc)+E(xc)   XCENC  =         0.00000000
  PAW double counting   =      2228.98533525    -2232.87221895
  entropy T*S    EENTRO =         0.00000000
  eigenvalues    EBANDS =      -198.17186041
  atomic energy  EATOM  =      1599.19861851
  ---------------------------------------------------
  free energy    TOTEN  =      -147.98597236 eV

  energy without entropy =     -147.98597236  energy(sigma->0) =     -147.98597236
  exchange ACFDT corr.  =         0.00000000  see jH, gK, PRB 81, 115126


--------------------------------------------------------------------------------------------------------




--------------------------------------- Iteration      1(  14)  ---------------------------------------


    POTLOK:  cpu time      0.1899: real time      0.1904
    SETDIJ:  cpu time      0.0166: real time      0.0166
    TRIAL :  cpu time      5.1794: real time      5.1933
    CORREC:  cpu time      5.5025: real time      5.5313
    CHARGE:  cpu time      0.0633: real time      0.0634
    --------------------------------------------
      LOOP:  cpu time     10.9587: real time     11.0021

 eigenvalue-minimisations  :     0
 total energy-change (2. order) :-0.1028802E-01  (-0.1273230E-01)
 number of electron      67.9999998 magnetization 
 augmentation part       -3.7603037 magnetization 

 Free energy of the ion-electron system (eV)
  ---------------------------------------------------
  alpha Z        PSCENC =        53.80049087
  Ewald energy   TEWEN  =     -1963.41543283
  -Hartree energ DENC   =      -143.42946466
  -exchange      EXHF   =       508.04069921
  -V(xc)+E(xc)   XCENC  =         0.00000000
  PAW double counting   =      2227.21248375    -2231.10155351
  entropy T*S    EENTRO =         0.00000000
  eigenvalues    EBANDS =      -198.30210172
  atomic energy  EATOM  =      1599.19861851
  ---------------------------------------------------
  free energy    TOTEN  =      -147.99626038 eV

  energy without entropy =     -147.99626038  energy(sigma->0) =     -147.99626038
  exchange ACFDT corr.  =         0.00000000  see jH, gK, PRB 81, 115126


--------------------------------------------------------------------------------------------------------




--------------------------------------- Iteration      1(  15)  ---------------------------------------


    POTLOK:  cpu time      0.1903: real time      0.1908
    SETDIJ:  cpu time      0.0148: real time      0.0149
    TRIAL :  cpu time      5.6136: real time      5.6292
    CORREC:  cpu time      5.5059: real time      5.5207
    CHARGE:  cpu time      0.0239: real time      0.0240
    --------------------------------------------
      LOOP:  cpu time     11.3561: real time     11.3871

 eigenvalue-minimisations  :     0
 total energy-change (2. order) :-0.1188270E-01  (-0.6666646E-02)
 number of electron      67.9999998 magnetization 
 augmentation part       -3.7606236 magnetization 

 Free energy of the ion-electron system (eV)
  ---------------------------------------------------
  alpha Z        PSCENC =        53.80049087
  Ewald energy   TEWEN  =     -1963.41543283
  -Hartree energ DENC   =      -142.99808670
  -exchange      EXHF   =       507.78171605
  -V(xc)+E(xc)   XCENC  =         0.00000000
  PAW double counting   =      2224.09336834    -2227.98366511
  entropy T*S    EENTRO =         0.00000000
  eigenvalues    EBANDS =      -198.48515222
  atomic energy  EATOM  =      1599.19861851
  ---------------------------------------------------
  free energy    TOTEN  =      -148.00814308 eV

  energy without entropy =     -148.00814308  energy(sigma->0) =     -148.00814308
  exchange ACFDT corr.  =         0.00000000  see jH, gK, PRB 81, 115126


--------------------------------------------------------------------------------------------------------




--------------------------------------- Iteration      1(  16)  ---------------------------------------


    POTLOK:  cpu time      0.1943: real time      0.1948
    SETDIJ:  cpu time      0.0545: real time      0.0546
    TRIAL :  cpu time      5.7403: real time      5.7570
    CORREC:  cpu time      5.4196: real time      5.4343
    CHARGE:  cpu time      0.0629: real time      0.0630
    --------------------------------------------
      LOOP:  cpu time     11.4813: real time     11.5150

 eigenvalue-minimisations  :     0
 total energy-change (2. order) :-0.6126065E-02  (-0.3742396E-02)
 number of electron      67.9999998 magnetization 
 augmentation part       -3.7586717 magnetization 

 Free energy of the ion-electron system (eV)
  ---------------------------------------------------
  alpha Z        PSCENC =        53.80049087
  Ewald energy   TEWEN  =     -1963.41543283
  -Hartree energ DENC   =      -142.73753752
  -exchange      EXHF   =       507.62343022
  -V(xc)+E(xc)   XCENC  =         0.00000000
  PAW double counting   =      2221.03722312    -2224.92884068
  entropy T*S    EENTRO =         0.00000000
  eigenvalues    EBANDS =      -198.59222084
  atomic energy  EATOM  =      1599.19861851
  ---------------------------------------------------
  free energy    TOTEN  =      -148.01426915 eV

  energy without entropy =     -148.01426915  energy(sigma->0) =     -148.01426915
  exchange ACFDT corr.  =         0.00000000  see jH, gK, PRB 81, 115126


--------------------------------------------------------------------------------------------------------




--------------------------------------- Iteration      1(  17)  ---------------------------------------


    POTLOK:  cpu time      0.1979: real time      0.1984
    SETDIJ:  cpu time      0.0155: real time      0.0155
    TRIAL :  cpu time      5.6333: real time      5.6486
    CORREC:  cpu time      5.5604: real time      5.5752
    CHARGE:  cpu time      0.0634: real time      0.0635
    --------------------------------------------
      LOOP:  cpu time     11.4778: real time     11.5085

 eigenvalue-minimisations  :     0
 total energy-change (2. order) :-0.3581270E-02  (-0.4514754E-02)
 number of electron      67.9999998 magnetization 
 augmentation part       -3.7552501 magnetization 

 Free energy of the ion-electron system (eV)
  ---------------------------------------------------
  alpha Z        PSCENC =        53.80049087
  Ewald energy   TEWEN  =     -1963.41543283
  -Hartree energ DENC   =      -142.56408024
  -exchange      EXHF   =       507.51747102
  -V(xc)+E(xc)   XCENC  =         0.00000000
  PAW double counting   =      2217.98017068    -2221.87286151
  entropy T*S    EENTRO =         0.00000000
  eigenvalues    EBANDS =      -198.66222692
  atomic energy  EATOM  =      1599.19861851
  ---------------------------------------------------
  free energy    TOTEN  =      -148.01785042 eV

  energy without entropy =     -148.01785042  energy(sigma->0) =     -148.01785042
  exchange ACFDT corr.  =         0.00000000  see jH, gK, PRB 81, 115126


--------------------------------------------------------------------------------------------------------




--------------------------------------- Iteration      1(  18)  ---------------------------------------


    POTLOK:  cpu time      0.1870: real time      0.1874
    SETDIJ:  cpu time      0.0160: real time      0.0160
    TRIAL :  cpu time      5.4012: real time      5.4158
    CORREC:  cpu time      5.5198: real time      5.5505
    CHARGE:  cpu time      0.1025: real time      0.1027
    --------------------------------------------
      LOOP:  cpu time     11.2336: real time     11.2798

 eigenvalue-minimisations  :     0
 total energy-change (2. order) :-0.4445348E-02  (-0.6942906E-02)
 number of electron      67.9999998 magnetization 
 augmentation part       -3.7522834 magnetization 

 Free energy of the ion-electron system (eV)
  ---------------------------------------------------
  alpha Z        PSCENC =        53.80049087
  Ewald energy   TEWEN  =     -1963.41543283
  -Hartree energ DENC   =      -142.34521538
  -exchange      EXHF   =       507.38644379
  -V(xc)+E(xc)   XCENC  =         0.00000000
  PAW double counting   =      2214.39371131    -2218.28488805
  entropy T*S    EENTRO =         0.00000000
  eigenvalues    EBANDS =      -198.75602398
  atomic energy  EATOM  =      1599.19861851
  ---------------------------------------------------
  free energy    TOTEN  =      -148.02229577 eV

  energy without entropy =     -148.02229577  energy(sigma->0) =     -148.02229577
  exchange ACFDT corr.  =         0.00000000  see jH, gK, PRB 81, 115126


--------------------------------------------------------------------------------------------------------




--------------------------------------- Iteration      1(  19)  ---------------------------------------


    POTLOK:  cpu time      0.1890: real time      0.1897
    SETDIJ:  cpu time      0.0169: real time      0.0169
    TRIAL :  cpu time      5.5994: real time      5.6143
    CORREC:  cpu time      5.7790: real time      5.7945
    CHARGE:  cpu time      0.0618: real time      0.0619
    --------------------------------------------
      LOOP:  cpu time     11.6534: real time     11.6847

 eigenvalue-minimisations  :     0
 total energy-change (2. order) :-0.6875922E-02  (-0.5887021E-02)
 number of electron      67.9999998 magnetization 
 augmentation part       -3.7525188 magnetization 

 Free energy of the ion-electron system (eV)
  ---------------------------------------------------
  alpha Z        PSCENC =        53.80049087
  Ewald energy   TEWEN  =     -1963.41543283
  -Hartree energ DENC   =      -142.04274708
  -exchange      EXHF   =       507.20940722
  -V(xc)+E(xc)   XCENC  =         0.00000000
  PAW double counting   =      2211.96489338    -2215.84672214
  entropy T*S    EENTRO =         0.00000000
  eigenvalues    EBANDS =      -198.89767962
  atomic energy  EATOM  =      1599.19861851
  ---------------------------------------------------
  free energy    TOTEN  =      -148.02917169 eV

  energy without entropy =     -148.02917169  energy(sigma->0) =     -148.02917169
  exchange ACFDT corr.  =         0.00000000  see jH, gK, PRB 81, 115126


--------------------------------------------------------------------------------------------------------




--------------------------------------- Iteration      1(  20)  ---------------------------------------


    POTLOK:  cpu time      0.1900: real time      0.1904
    SETDIJ:  cpu time      0.0156: real time      0.0156
    TRIAL :  cpu time      5.5410: real time      5.5665
    CORREC:  cpu time      5.6931: real time      5.7083
    CHARGE:  cpu time      0.0632: real time      0.0633
    --------------------------------------------
      LOOP:  cpu time     11.5104: real time     11.5517

 eigenvalue-minimisations  :     0
 total energy-change (2. order) :-0.5687010E-02  (-0.2541900E-02)
 number of electron      67.9999998 magnetization 
 augmentation part       -3.7540733 magnetization 

 Free energy of the ion-electron system (eV)
  ---------------------------------------------------
  alpha Z        PSCENC =        53.80049087
  Ewald energy   TEWEN  =     -1963.41543283
  -Hartree energ DENC   =      -141.83910874
  -exchange      EXHF   =       507.08828831
  -V(xc)+E(xc)   XCENC  =         0.00000000
  PAW double counting   =      2212.80322107    -2216.67269041
  entropy T*S    EENTRO =         0.00000000
  eigenvalues    EBANDS =      -198.99824548
  atomic energy  EATOM  =      1599.19861851
  ---------------------------------------------------
  free energy    TOTEN  =      -148.03485870 eV

  energy without entropy =     -148.03485870  energy(sigma->0) =     -148.03485870
  exchange ACFDT corr.  =         0.00000000  see jH, gK, PRB 81, 115126


--------------------------------------------------------------------------------------------------------




--------------------------------------- Iteration      1(  21)  ---------------------------------------


    POTLOK:  cpu time      0.1896: real time      0.1901
    SETDIJ:  cpu time      0.0163: real time      0.0163
    TRIAL :  cpu time      5.5684: real time      5.5833
    CORREC:  cpu time      5.3936: real time      5.4082
    CHARGE:  cpu time      0.0632: real time      0.0635
    --------------------------------------------
      LOOP:  cpu time     11.2383: real time     11.2684

 eigenvalue-minimisations  :     0
 total energy-change (2. order) :-0.2473810E-02  (-0.2031244E-02)
 number of electron      67.9999998 magnetization 
 augmentation part       -3.7560429 magnetization 

 Free energy of the ion-electron system (eV)
  ---------------------------------------------------
  alpha Z        PSCENC =        53.80049087
  Ewald energy   TEWEN  =     -1963.41543283
  -Hartree energ DENC   =      -141.80393271
  -exchange      EXHF   =       507.05883470
  -V(xc)+E(xc)   XCENC  =         0.00000000
  PAW double counting   =      2214.61084672    -2218.47429681
  entropy T*S    EENTRO =         0.00000000
  eigenvalues    EBANDS =      -199.01246096
  atomic energy  EATOM  =      1599.19861851
  ---------------------------------------------------
  free energy    TOTEN  =      -148.03733251 eV

  energy without entropy =     -148.03733251  energy(sigma->0) =     -148.03733251
  exchange ACFDT corr.  =         0.00000000  see jH, gK, PRB 81, 115126


--------------------------------------------------------------------------------------------------------




--------------------------------------- Iteration      1(  22)  ---------------------------------------


    POTLOK:  cpu time      0.1900: real time      0.1905
    SETDIJ:  cpu time      0.0156: real time      0.0156
    TRIAL :  cpu time      5.3293: real time      5.3438
    CORREC:  cpu time      5.8233: real time      5.8387
    CHARGE:  cpu time      0.0634: real time      0.0635
    --------------------------------------------
      LOOP:  cpu time     11.4314: real time     11.4633

 eigenvalue-minimisations  :     0
 total energy-change (2. order) :-0.2021548E-02  (-0.2960609E-02)
 number of electron      67.9999998 magnetization 
 augmentation part       -3.7577664 magnetization 

 Free energy of the ion-electron system (eV)
  ---------------------------------------------------
  alpha Z        PSCENC =        53.80049087
  Ewald energy   TEWEN  =     -1963.41543283
  -Hartree energ DENC   =      -141.85880725
  -exchange      EXHF   =       507.06800154
  -V(xc)+E(xc)   XCENC  =         0.00000000
  PAW double counting   =      2216.60695615    -2220.46847384
  entropy T*S    EENTRO =         0.00000000
  eigenvalues    EBANDS =      -198.97070721
  atomic energy  EATOM  =      1599.19861851
  ---------------------------------------------------
  free energy    TOTEN  =      -148.03935406 eV

  energy without entropy =     -148.03935406  energy(sigma->0) =     -148.03935406
  exchange ACFDT corr.  =         0.00000000  see jH, gK, PRB 81, 115126


--------------------------------------------------------------------------------------------------------




--------------------------------------- Iteration      1(  23)  ---------------------------------------


    POTLOK:  cpu time      0.1973: real time      0.1980
    SETDIJ:  cpu time      0.0162: real time      0.0162
    TRIAL :  cpu time      5.5455: real time      5.5602
    CORREC:  cpu time      5.5103: real time      5.5251
    CHARGE:  cpu time      0.0636: real time      0.0637
    --------------------------------------------
      LOOP:  cpu time     11.3401: real time     11.3705

 eigenvalue-minimisations  :     0
 total energy-change (2. order) :-0.2959778E-02  (-0.2176443E-02)
 number of electron      67.9999998 magnetization 
 augmentation part       -3.7577588 magnetization 

 Free energy of the ion-electron system (eV)
  ---------------------------------------------------
  alpha Z        PSCENC =        53.80049087
  Ewald energy   TEWEN  =     -1963.41543283
  -Hartree energ DENC   =      -142.00909015
  -exchange      EXHF   =       507.10632950
  -V(xc)+E(xc)   XCENC  =         0.00000000
  PAW double counting   =      2217.98735518    -2221.85236582
  entropy T*S    EENTRO =         0.00000000
  eigenvalues    EBANDS =      -198.85821910
  atomic energy  EATOM  =      1599.19861851
  ---------------------------------------------------
  free energy    TOTEN  =      -148.04231384 eV

  energy without entropy =     -148.04231384  energy(sigma->0) =     -148.04231384
  exchange ACFDT corr.  =         0.00000000  see jH, gK, PRB 81, 115126


--------------------------------------------------------------------------------------------------------




--------------------------------------- Iteration      1(  24)  ---------------------------------------


    POTLOK:  cpu time      0.1802: real time      0.1807
    SETDIJ:  cpu time      0.0562: real time      0.0563
    TRIAL :  cpu time      5.3182: real time      5.3350
    CORREC:  cpu time      5.6273: real time      5.6424
    CHARGE:  cpu time      0.0240: real time      0.0241
    --------------------------------------------
      LOOP:  cpu time     11.2131: real time     11.2457

 eigenvalue-minimisations  :     0
 total energy-change (2. order) :-0.2157478E-02  (-0.1277891E-02)
 number of electron      67.9999998 magnetization 
 augmentation part       -3.7574727 magnetization 

 Free energy of the ion-electron system (eV)
  ---------------------------------------------------
  alpha Z        PSCENC =        53.80049087
  Ewald energy   TEWEN  =     -1963.41543283
  -Hartree energ DENC   =      -142.13622914
  -exchange      EXHF   =       507.14090045
  -V(xc)+E(xc)   XCENC  =         0.00000000
  PAW double counting   =      2217.28551408    -2221.15668473
  entropy T*S    EENTRO =         0.00000000
  eigenvalues    EBANDS =      -198.76164853
  atomic energy  EATOM  =      1599.19861851
  ---------------------------------------------------
  free energy    TOTEN  =      -148.04447131 eV

  energy without entropy =     -148.04447131  energy(sigma->0) =     -148.04447131
  exchange ACFDT corr.  =         0.00000000  see jH, gK, PRB 81, 115126


--------------------------------------------------------------------------------------------------------




--------------------------------------- Iteration      1(  25)  ---------------------------------------


    POTLOK:  cpu time      0.1885: real time      0.1889
    SETDIJ:  cpu time      0.0149: real time      0.0149
    TRIAL :  cpu time      5.4473: real time      5.4619
    CORREC:  cpu time      5.5416: real time      5.5565
    CHARGE:  cpu time      0.0642: real time      0.0644
    --------------------------------------------
      LOOP:  cpu time     11.2637: real time     11.2939

 eigenvalue-minimisations  :     0
 total energy-change (2. order) :-0.1259229E-02  (-0.1053159E-02)
 number of electron      67.9999998 magnetization 
 augmentation part       -3.7576241 magnetization 

 Free energy of the ion-electron system (eV)
  ---------------------------------------------------
  alpha Z        PSCENC =        53.80049087
  Ewald energy   TEWEN  =     -1963.41543283
  -Hartree energ DENC   =      -142.20516953
  -exchange      EXHF   =       507.16424818
  -V(xc)+E(xc)   XCENC  =         0.00000000
  PAW double counting   =      2216.04975788    -2219.92504865
  entropy T*S    EENTRO =         0.00000000
  eigenvalues    EBANDS =      -198.71319496
  atomic energy  EATOM  =      1599.19861851
  ---------------------------------------------------
  free energy    TOTEN  =      -148.04573054 eV

  energy without entropy =     -148.04573054  energy(sigma->0) =     -148.04573054
  exchange ACFDT corr.  =         0.00000000  see jH, gK, PRB 81, 115126


--------------------------------------------------------------------------------------------------------




--------------------------------------- Iteration      1(  26)  ---------------------------------------


    POTLOK:  cpu time      0.1885: real time      0.1891
    SETDIJ:  cpu time      0.0162: real time      0.0163
    TRIAL :  cpu time      5.3125: real time      5.3399
    CORREC:  cpu time      5.5943: real time      5.6094
    CHARGE:  cpu time      0.0239: real time      0.0240
    --------------------------------------------
      LOOP:  cpu time     11.1426: real time     11.1859

 eigenvalue-minimisations  :     0
 total energy-change (2. order) :-0.1051026E-02  (-0.1257196E-02)
 number of electron      67.9999998 magnetization 
 augmentation part       -3.7580388 magnetization 

 Free energy of the ion-electron system (eV)
  ---------------------------------------------------
  alpha Z        PSCENC =        53.80049087
  Ewald energy   TEWEN  =     -1963.41543283
  -Hartree energ DENC   =      -142.23838862
  -exchange      EXHF   =       507.18319472
  -V(xc)+E(xc)   XCENC  =         0.00000000
  PAW double counting   =      2214.85058117    -2218.72755983
  entropy T*S    EENTRO =         0.00000000
  eigenvalues    EBANDS =      -198.69828556
  atomic energy  EATOM  =      1599.19861851
  ---------------------------------------------------
  free energy    TOTEN  =      -148.04678157 eV

  energy without entropy =     -148.04678157  energy(sigma->0) =     -148.04678157
  exchange ACFDT corr.  =         0.00000000  see jH, gK, PRB 81, 115126


--------------------------------------------------------------------------------------------------------




--------------------------------------- Iteration      1(  27)  ---------------------------------------


    POTLOK:  cpu time      0.1959: real time      0.1963
    SETDIJ:  cpu time      0.0148: real time      0.0149
    TRIAL :  cpu time      5.3853: real time      5.3998
    CORREC:  cpu time      5.3437: real time      5.3585
    CHARGE:  cpu time      0.1029: real time      0.1032
    --------------------------------------------
      LOOP:  cpu time     11.0498: real time     11.0799

 eigenvalue-minimisations  :     0
 total energy-change (2. order) :-0.1257185E-02  (-0.9663308E-03)
 number of electron      67.9999998 magnetization 
 augmentation part       -3.7581252 magnetization 

 Free energy of the ion-electron system (eV)
  ---------------------------------------------------
  alpha Z        PSCENC =        53.80049087
  Ewald energy   TEWEN  =     -1963.41543283
  -Hartree energ DENC   =      -142.24004628
  -exchange      EXHF   =       507.19769153
  -V(xc)+E(xc)   XCENC  =         0.00000000
  PAW double counting   =      2213.37727529    -2217.25406100
  entropy T*S    EENTRO =         0.00000000
  eigenvalues    EBANDS =      -198.71257486
  atomic energy  EATOM  =      1599.19861851
  ---------------------------------------------------
  free energy    TOTEN  =      -148.04803875 eV

  energy without entropy =     -148.04803875  energy(sigma->0) =     -148.04803875
  exchange ACFDT corr.  =         0.00000000  see jH, gK, PRB 81, 115126


--------------------------------------------------------------------------------------------------------




--------------------------------------- Iteration      1(  28)  ---------------------------------------


    POTLOK:  cpu time      0.1931: real time      0.1935
    SETDIJ:  cpu time      0.0165: real time      0.0165
    TRIAL :  cpu time      5.5341: real time      5.5489
    CORREC:  cpu time      5.5010: real time      5.5158
    CHARGE:  cpu time      0.0238: real time      0.0239
    --------------------------------------------
      LOOP:  cpu time     11.2782: real time     11.3100

 eigenvalue-minimisations  :     0
 total energy-change (2. order) :-0.9613123E-03  (-0.7251100E-03)
 number of electron      67.9999998 magnetization 
 augmentation part       -3.7579492 magnetization 

 Free energy of the ion-electron system (eV)
  ---------------------------------------------------
  alpha Z        PSCENC =        53.80049087
  Ewald energy   TEWEN  =     -1963.41543283
  -Hartree energ DENC   =      -142.21334590
  -exchange      EXHF   =       507.19752655
  -V(xc)+E(xc)   XCENC  =         0.00000000
  PAW double counting   =      2212.22892960    -2216.10452446
  entropy T*S    EENTRO =         0.00000000
  eigenvalues    EBANDS =      -198.74126241
  atomic energy  EATOM  =      1599.19861851
  ---------------------------------------------------
  free energy    TOTEN  =      -148.04900007 eV

  energy without entropy =     -148.04900007  energy(sigma->0) =     -148.04900007
  exchange ACFDT corr.  =         0.00000000  see jH, gK, PRB 81, 115126


--------------------------------------------------------------------------------------------------------




--------------------------------------- Iteration      1(  29)  ---------------------------------------


    POTLOK:  cpu time      0.1916: real time      0.1922
    SETDIJ:  cpu time      0.0154: real time      0.0155
    TRIAL :  cpu time      5.4894: real time      5.5049
    CORREC:  cpu time      5.7692: real time      5.7846
    CHARGE:  cpu time      0.1014: real time      0.1019
    --------------------------------------------
      LOOP:  cpu time     11.5743: real time     11.6062

 eigenvalue-minimisations  :     0
 total energy-change (2. order) :-0.7230635E-03  (-0.7609394E-03)
 number of electron      67.9999998 magnetization 
 augmentation part       -3.7576017 magnetization 

 Free energy of the ion-electron system (eV)
  ---------------------------------------------------
  alpha Z        PSCENC =        53.80049087
  Ewald energy   TEWEN  =     -1963.41543283
  -Hartree energ DENC   =      -142.17051725
  -exchange      EXHF   =       507.18449095
  -V(xc)+E(xc)   XCENC  =         0.00000000
  PAW double counting   =      2211.64865685    -2215.52257236
  entropy T*S    EENTRO =         0.00000000
  eigenvalues    EBANDS =      -198.77345787
  atomic energy  EATOM  =      1599.19861851
  ---------------------------------------------------
  free energy    TOTEN  =      -148.04972313 eV

  energy without entropy =     -148.04972313  energy(sigma->0) =     -148.04972313
  exchange ACFDT corr.  =         0.00000000  see jH, gK, PRB 81, 115126


--------------------------------------------------------------------------------------------------------




--------------------------------------- Iteration      1(  30)  ---------------------------------------


    POTLOK:  cpu time      0.1922: real time      0.1927
    SETDIJ:  cpu time      0.0499: real time      0.0500
    TRIAL :  cpu time      5.5294: real time      5.5442
    CORREC:  cpu time      5.5189: real time      5.5337
    CHARGE:  cpu time      0.0239: real time      0.0239
    --------------------------------------------
      LOOP:  cpu time     11.3218: real time     11.3521

 eigenvalue-minimisations  :     0
 total energy-change (2. order) :-0.7614224E-03  (-0.1063562E-02)
 number of electron      67.9999998 magnetization 
 augmentation part       -3.7569456 magnetization 

 Free energy of the ion-electron system (eV)
  ---------------------------------------------------
  alpha Z        PSCENC =        53.80049087
  Ewald energy   TEWEN  =     -1963.41543283
  -Hartree energ DENC   =      -142.10893617
  -exchange      EXHF   =       507.15767955
  -V(xc)+E(xc)   XCENC  =         0.00000000
  PAW double counting   =      2211.60947567    -2215.48118490
  entropy T*S    EENTRO =         0.00000000
  eigenvalues    EBANDS =      -198.81119525
  atomic energy  EATOM  =      1599.19861851
  ---------------------------------------------------
  free energy    TOTEN  =      -148.05048455 eV

  energy without entropy =     -148.05048455  energy(sigma->0) =     -148.05048455
  exchange ACFDT corr.  =         0.00000000  see jH, gK, PRB 81, 115126


--------------------------------------------------------------------------------------------------------




--------------------------------------- Iteration      1(  31)  ---------------------------------------


    POTLOK:  cpu time      0.1782: real time      0.1787
    SETDIJ:  cpu time      0.0152: real time      0.0153
    TRIAL :  cpu time      5.3640: real time      5.3783
    CORREC:  cpu time      5.6346: real time      5.6497
    CHARGE:  cpu time      0.0636: real time      0.0637
    --------------------------------------------
      LOOP:  cpu time     11.2628: real time     11.2930

 eigenvalue-minimisations  :     0
 total energy-change (2. order) :-0.1068904E-02  (-0.1095739E-02)
 number of electron      67.9999998 magnetization 
 augmentation part       -3.7561915 magnetization 

 Free energy of the ion-electron system (eV)
  ---------------------------------------------------
  alpha Z        PSCENC =        53.80049087
  Ewald energy   TEWEN  =     -1963.41543283
  -Hartree energ DENC   =      -142.01990884
  -exchange      EXHF   =       507.11131103
  -V(xc)+E(xc)   XCENC  =         0.00000000
  PAW double counting   =      2212.11611225    -2215.98529557
  entropy T*S    EENTRO =         0.00000000
  eigenvalues    EBANDS =      -198.85744887
  atomic energy  EATOM  =      1599.19861851
  ---------------------------------------------------
  free energy    TOTEN  =      -148.05155346 eV

  energy without entropy =     -148.05155346  energy(sigma->0) =     -148.05155346
  exchange ACFDT corr.  =         0.00000000  see jH, gK, PRB 81, 115126


--------------------------------------------------------------------------------------------------------




--------------------------------------- Iteration      1(  32)  ---------------------------------------


    POTLOK:  cpu time      0.1908: real time      0.1913
    SETDIJ:  cpu time      0.0505: real time      0.0506
    TRIAL :  cpu time      5.5564: real time      5.5715
    CORREC:  cpu time      5.4878: real time      5.5025
    CHARGE:  cpu time      0.1001: real time      0.1005
    --------------------------------------------
      LOOP:  cpu time     11.3929: real time     11.4237

 eigenvalue-minimisations  :     0
 total energy-change (2. order) :-0.1091226E-02  (-0.1630507E-02)
 number of electron      67.9999998 magnetization 
 augmentation part       -3.7566726 magnetization 

 Free energy of the ion-electron system (eV)
  ---------------------------------------------------
  alpha Z        PSCENC =        53.80049087
  Ewald energy   TEWEN  =     -1963.41543283
  -Hartree energ DENC   =      -141.94326524
  -exchange      EXHF   =       507.06505083
  -V(xc)+E(xc)   XCENC  =         0.00000000
  PAW double counting   =      2212.87768440    -2216.74561919
  entropy T*S    EENTRO =         0.00000000
  eigenvalues    EBANDS =      -198.89017203
  atomic energy  EATOM  =      1599.19861851
  ---------------------------------------------------
  free energy    TOTEN  =      -148.05264468 eV

  energy without entropy =     -148.05264468  energy(sigma->0) =     -148.05264468
[...]
    149      33.9164      0.00000
    150      33.9774      0.00000
    151      34.1587      0.00000
    152      34.2647      0.00000
    153      34.5166      0.00000
    154      34.6924      0.00000
    155      34.8148      0.00000
    156      34.9338      0.00000
    157      35.2290      0.00000
    158      35.2458      0.00000
    159      35.3030      0.00000
    160      35.3985      0.00000
    161      35.4241      0.00000
    162      36.2517      0.00000
    163      36.3171      0.00000
    164      36.4511      0.00000
    165      36.8885      0.00000
    166      37.0069      0.00000
    167      37.5451      0.00000
    168      37.7325      0.00000
    169      37.7446      0.00000
    170      38.1594      0.00000
    171      38.2667      0.00000
    172      38.5104      0.00000
    173      38.5818      0.00000
    174      38.8287      0.00000
    175      38.8593      0.00000
    176      39.2126      0.00000
    177      39.2142      0.00000
    178      39.2755      0.00000
    179      39.3745      0.00000
    180      39.3961      0.00000
    181      39.4917      0.00000
    182      39.5699      0.00000
    183      39.6283      0.00000
    184      39.7045      0.00000
    185      39.7109      0.00000
    186      39.8706      0.00000
    187      40.0868      0.00000
    188      40.1249      0.00000
    189      40.3365      0.00000
    190      40.7001      0.00000
    191      40.7125      0.00000
    192      41.0365      0.00000
    193      41.0746      0.00000
    194      41.1553      0.00000
    195      41.2023      0.00000
    196      41.4923      0.00000
    197      41.5020      0.00000
    198      41.5095      0.00000
    199      41.7939      0.00000
    200      41.9584      0.00000
    201      42.0404      0.00000
    202      42.2524      0.00000
    203      42.2728      0.00000
    204      42.6922      0.00000
    205      42.8486      0.00000
    206      43.1305      0.00000
    207      43.2839      0.00000
    208      43.3586      0.00000
    209      43.4146      0.00000
    210      43.5579      0.00000
    211      43.6480      0.00000
    212      43.7134      0.00000
    213      43.7246      0.00000
    214      44.2369      0.00000
    215      44.2513      0.00000
    216      44.3226      0.00000
    217      44.5559      0.00000
    218      44.7872      0.00000
    219      44.7930      0.00000
    220      44.8272      0.00000
    221      44.9300      0.00000
    222      45.0535      0.00000
    223      45.2687      0.00000
    224      45.4243      0.00000
    225      45.4396      0.00000
    226      45.5296      0.00000
    227      45.7098      0.00000
    228      45.7821      0.00000
    229      45.8414      0.00000
    230      46.0069      0.00000
    231      46.1232      0.00000
    232      46.2700      0.00000
    233      46.3351      0.00000
    234      46.3467      0.00000
    235      46.4077      0.00000
    236      46.4512      0.00000
    237      46.5155      0.00000
    238      46.6025      0.00000
    239      46.7175      0.00000
    240      46.8000      0.00000
    241      46.8939      0.00000
    242      47.2120      0.00000
    243      47.5216      0.00000
    244      47.7694      0.00000
    245      47.8116      0.00000
    246      47.9850      0.00000
    247      48.0064      0.00000
    248      48.0471      0.00000
    249      48.1434      0.00000
    250      48.3176      0.00000
    251      48.6616      0.00000
    252      48.7576      0.00000
    253      48.7693      0.00000
    254      48.7941      0.00000
    255      48.9514      0.00000
    256      48.9979      0.00000
    257      49.0203      0.00000
    258      49.2076      0.00000
    259      49.2211      0.00000
    260      49.3811      0.00000
    261      49.4987      0.00000
    262      49.6130      0.00000
    263      49.8360      0.00000
    264      50.1369      0.00000
    265      50.2519      0.00000
    266      50.2697      0.00000
    267      50.5154      0.00000
    268      50.9285      0.00000
    269      51.1477      0.00000
    270      51.3768      0.00000
    271      51.5535      0.00000
    272      51.7352      0.00000
    273      51.8313      0.00000
    274      51.8606      0.00000
    275      52.1450      0.00000
    276      52.2911      0.00000
    277      52.3070      0.00000
    278      52.3985      0.00000
    279      52.4370      0.00000
    280      52.7249      0.00000
    281      52.8305      0.00000
    282      52.8880      0.00000
    283      52.9237      0.00000
    284      52.9734      0.00000
    285      53.0263      0.00000
    286      53.3410      0.00000
    287      53.4381      0.00000
    288      53.4629      0.00000
    289      53.4991      0.00000
    290      53.5560      0.00000
    291      53.5654      0.00000
    292      53.6070      0.00000
    293      53.6301      0.00000
    294      53.9427      0.00000
    295      54.0237      0.00000
    296      54.1978      0.00000
    297      54.3142      0.00000
    298      54.5358      0.00000
    299      54.5962      0.00000
    300      54.7980      0.00000
    301      54.8513      0.00000
    302      55.0646      0.00000
    303      55.2339      0.00000
    304      55.4838      0.00000
    305      55.6183      0.00000
    306      55.6539      0.00000
    307      55.7575      0.00000
    308      55.8290      0.00000
    309      55.8728      0.00000
    310      55.8749      0.00000
    311      55.9434      0.00000
    312      56.0610      0.00000
    313      56.2483      0.00000
    314      56.3743      0.00000
    315      56.4494      0.00000
    316      56.5338      0.00000
    317      56.9080      0.00000
    318      57.0083      0.00000
    319      57.2784      0.00000
    320      57.3811      0.00000
    321      57.4701      0.00000
    322      57.5899      0.00000
    323      57.6379      0.00000
    324      57.6867      0.00000
    325      57.9000      0.00000
    326      58.0088      0.00000
    327      58.0144      0.00000
    328      58.1187      0.00000
    329      58.3033      0.00000
    330      58.3493      0.00000
    331      58.4100      0.00000
    332      58.4473      0.00000
    333      58.7931      0.00000
    334      59.0786      0.00000
    335      59.1644      0.00000
    336      59.2061      0.00000
    337      59.4232      0.00000
    338      60.2806      0.00000
    339      60.3386      0.00000
    340      60.5179      0.00000
    341      60.7724      0.00000
    342      60.8158      0.00000
    343      60.8326      0.00000
    344      60.8812      0.00000
    345      60.9764      0.00000
    346      60.9967      0.00000
    347      61.0899      0.00000
    348      61.2223      0.00000
    349      61.2651      0.00000
    350      61.4856      0.00000
    351      61.4890      0.00000
    352      61.5928      0.00000
    353      61.9061      0.00000
    354      61.9315      0.00000
    355      62.2150      0.00000
    356      62.3918      0.00000
    357      62.4350      0.00000
    358      62.6080      0.00000
    359      62.6886      0.00000
    360      62.6941      0.00000
    361      62.8306      0.00000
    362      62.8325      0.00000
    363      62.8528      0.00000
    364      63.0726      0.00000
    365      63.1538      0.00000
    366      63.3511      0.00000
    367      63.4823      0.00000
    368      63.4996      0.00000
    369      63.5700      0.00000
    370      63.8924      0.00000
    371      64.0151      0.00000
    372      64.1083      0.00000
    373      64.2330      0.00000
    374      64.4377      0.00000
    375      64.5719      0.00000
    376      64.6773      0.00000
    377      64.7250      0.00000
    378      64.8405      0.00000
    379      64.9051      0.00000
    380      64.9192      0.00000
    381      64.9775      0.00000
    382      65.3796      0.00000
    383      65.4599      0.00000
    384      65.4776      0.00000


--------------------------------------------------------------------------------------------------------


 soft charge-density along one line, spin component           1
         0         1         2         3         4         5         6         7         8         9
 total charge-density along one line
 
 pseudopotential strength for first ion, spin component:           1
 14.384 -16.682   0.013   0.010  -0.014  -0.040  -0.031   0.043
-16.682  52.837  -0.005  -0.003   0.005   0.012   0.007  -0.012
  0.013  -0.005   3.361  -0.001   0.004  -9.835   0.003  -0.010
  0.010  -0.003  -0.001   3.343   0.000   0.003  -9.787  -0.001
 -0.014   0.005   0.004   0.000   3.361  -0.010  -0.001  -9.836
 -0.040   0.012  -9.835   0.003  -0.010  31.344  -0.008   0.026
 -0.031   0.007   0.003  -9.787  -0.001  -0.008  31.213   0.003
  0.043  -0.012  -0.010  -0.001  -9.836   0.026   0.003  31.346
  0.005   0.004  -0.006   0.000   0.005   0.010  -0.001  -0.010
 -0.002  -0.001   0.005   0.006   0.000  -0.010  -0.011  -0.001
 -0.016  -0.010  -0.001   0.001   0.001   0.003  -0.001  -0.003
  0.001   0.001   0.000  -0.006   0.005  -0.001   0.011  -0.010
  0.000   0.000  -0.003   0.000  -0.003   0.005  -0.000   0.006
 -0.021   0.007   0.028  -0.002  -0.026  -0.073   0.005   0.070
  0.006  -0.002  -0.026  -0.028  -0.002   0.067   0.073   0.005
  0.071  -0.029   0.008  -0.006  -0.009  -0.022   0.017   0.023
 -0.002   0.000  -0.002   0.029  -0.026   0.005  -0.077   0.067
 -0.001   0.000   0.015  -0.000   0.016  -0.042   0.000  -0.045
 total augmentation occupancy for first ion, spin component:           1
  1.748   0.041  -0.153  -0.078   0.155  -0.002   0.000   0.002   0.017  -0.015   0.043   0.016  -0.000  -0.000  -0.000  -0.000
  0.041   0.001   0.003   0.003  -0.003   0.000   0.000  -0.000  -0.000  -0.001   0.000   0.001  -0.000  -0.000  -0.000  -0.000
 -0.153   0.003   0.974   0.017  -0.134   0.044  -0.002  -0.005  -0.020  -0.034  -0.070  -0.037  -0.094  -0.000  -0.000  -0.001
 -0.078   0.003   0.017   1.446   0.001  -0.002   0.056   0.002   0.008  -0.011   0.152   0.013   0.001  -0.000  -0.000   0.000
  0.155  -0.003  -0.134   0.001   0.966  -0.005   0.002   0.043   0.021  -0.037   0.073  -0.035  -0.095   0.000  -0.000   0.001
 -0.002   0.000   0.044  -0.002  -0.005   0.002  -0.000  -0.000  -0.001  -0.002  -0.003  -0.002  -0.004  -0.000  -0.000  -0.000
  0.000   0.000  -0.002   0.056   0.002  -0.000   0.002   0.000  -0.000  -0.001   0.006   0.001   0.000  -0.000  -0.000   0.000
  0.002  -0.000  -0.005   0.002   0.043  -0.000   0.000   0.002   0.001  -0.002   0.003  -0.002  -0.004   0.000  -0.000   0.000
  0.017  -0.000  -0.020   0.008   0.021  -0.001  -0.000   0.001   0.018   0.003   0.010  -0.003   0.000   0.000   0.000   0.000
 -0.015  -0.001  -0.034  -0.011  -0.037  -0.002  -0.001  -0.002   0.003   0.013  -0.000   0.001   0.004   0.000   0.000  -0.000
  0.043   0.000  -0.070   0.152   0.073  -0.003   0.006   0.003   0.010  -0.000   0.038   0.001   0.000   0.000   0.000   0.000
  0.016   0.001  -0.037   0.013  -0.035  -0.002   0.001  -0.002  -0.003   0.001   0.001   0.013   0.004  -0.000  -0.000   0.000
 -0.000  -0.000  -0.094   0.001  -0.095  -0.004   0.000  -0.004   0.000   0.004   0.000   0.004   0.037  -0.000   0.000  -0.000
 -0.000  -0.000  -0.000  -0.000   0.000  -0.000  -0.000   0.000   0.000   0.000   0.000  -0.000  -0.000   0.000   0.000   0.000
 -0.000  -0.000  -0.000  -0.000  -0.000  -0.000  -0.000  -0.000   0.000   0.000   0.000  -0.000   0.000   0.000   0.000  -0.000
 -0.000  -0.000  -0.001   0.000   0.001  -0.000   0.000   0.000   0.000  -0.000   0.000   0.000  -0.000   0.000  -0.000   0.000
  0.000   0.000  -0.000   0.000  -0.000  -0.000   0.000  -0.000  -0.000  -0.000  -0.000   0.000   0.000  -0.000  -0.000   0.000
  0.000  -0.000  -0.001  -0.000  -0.001  -0.000  -0.000  -0.000   0.000   0.000   0.000   0.000   0.000  -0.000   0.000  -0.000


------------------------ aborting loop EDIFF was not reached (unconverged)  ----------------------------


 -----------------------------------------------------------------------------
|                                                                             |
|           W    W    AA    RRRRR   N    N  II  N    N   GGGG   !!!           |
|           W    W   A  A   R    R  NN   N  II  NN   N  G    G  !!!           |
|           W    W  A    A  R    R  N N  N  II  N N  N  G       !!!           |
|           W WW W  AAAAAA  RRRRR   N  N N  II  N  N N  G  GGG   !            |
|           WW  WW  A    A  R   R   N   NN  II  N   NN  G    G                |
|           W    W  A    A  R    R  N    N  II  N    N   GGGG   !!!           |
|                                                                             |
|     The electronic self-consistency was not achieved in the given           |
|     number of steps (NELM). The forces and other quantities evaluated       |
|     might not be reliable so examine the results carefully. If you find     |
|     spurious results, we suggest increasing NELM, if you were close to      |
|     convergence or switching to a different ALGO or adjusting the           |
|     density mixing parameters otherwise.                                    |
|                                                                             |
 -----------------------------------------------------------------------------

    FORLOC:  cpu time      0.0006: real time      0.0006
    FORHF :  cpu time      0.3277: real time      0.3291
    FORNL :  cpu time      0.0555: real time      0.0557
    FORCOR:  cpu time      0.1694: real time      0.1702
    OFIELD:  cpu time      0.0001: real time      0.0002

 VOLUME and BASIS-vectors are now :
 -----------------------------------------------------------------------------
  energy-cutoff  :      400.00
  volume of cell :      327.28
      direct lattice vectors                 reciprocal lattice vectors
     5.469713400  5.469713400  0.000000000     0.091412468  0.091412468 -0.091412468
     0.000000000  5.469713400  5.469713400    -0.091412468  0.091412468  0.091412468
     5.469713400  0.000000000  5.469713400     0.091412468 -0.091412468  0.091412468

  length of vectors
     7.735342873  7.735342873  7.735342873     0.158331039  0.158331039  0.158331039


 FORCES acting on ions:
    Electron-Ion                     Ewald-Force                    Non-Local-Force
 -----------------------------------------------------------------------------------------------
   -.377E+01 0.392E+01 -.858E+01   0.650E+01 -.649E+01 0.673E+01   -.331E+01 0.323E+01 0.134E+01
   0.392E+01 -.377E+01 -.858E+01   -.649E+01 0.650E+01 0.673E+01   0.323E+01 -.331E+01 0.134E+01
   0.138E+02 0.138E+02 -.387E+01   -.156E+02 -.156E+02 0.167E+01   0.174E+01 0.174E+01 0.185E+01
   -.138E+02 -.138E+02 -.402E+01   0.156E+02 0.156E+02 0.167E+01   -.175E+01 -.175E+01 0.195E+01
   -.114E+02 0.116E+02 -.147E+02   0.109E+02 -.109E+02 0.155E+02   -.207E+00 0.124E+00 -.851E+00
   -.144E+01 0.142E+01 0.962E+01   0.122E+01 -.122E+01 -.997E+01   0.159E+00 -.166E+00 0.585E+00
   0.116E+02 -.114E+02 -.147E+02   -.109E+02 0.109E+02 0.155E+02   0.124E+00 -.207E+00 -.851E+00
   0.142E+01 -.144E+01 0.962E+01   -.122E+01 0.122E+01 -.997E+01   -.166E+00 0.159E+00 0.585E+00
   0.732E+01 0.732E+01 0.112E+01   -.797E+01 -.797E+01 -.121E+01   0.441E+00 0.441E+00 -.504E-02
   -.730E+01 -.730E+01 0.125E+01   0.796E+01 0.796E+01 -.122E+01   -.442E+00 -.442E+00 -.105E+00
   -.304E-01 -.304E-01 -.479E+01   -.121E-02 -.121E-02 0.313E+01   0.288E-01 0.288E-01 0.116E+01
   0.417E+01 0.125E+02 0.980E+01   -.315E+01 -.138E+02 -.984E+01   -.454E+00 0.121E+01 0.447E+00
   -.126E+02 -.405E+01 0.977E+01   0.138E+02 0.316E+01 -.983E+01   -.114E+01 0.372E+00 0.499E+00
   0.125E+02 0.417E+01 0.981E+01   -.138E+02 -.315E+01 -.984E+01   0.121E+01 -.454E+00 0.447E+00
   -.405E+01 -.126E+02 0.977E+01   0.316E+01 0.138E+02 -.983E+01   0.372E+00 -.114E+01 0.499E+00
   -.105E+00 -.104E+00 -.136E+02   0.314E-02 0.314E-02 0.155E+02   0.291E-01 0.291E-01 -.209E+01
   0.563E-02 0.604E-02 0.378E+01   0.104E-01 0.104E-01 -.464E+01   -.293E-01 -.293E-01 0.679E+00
 -----------------------------------------------------------------------------------------------
   0.213E+00 0.213E+00 -.830E+01   0.115E-13 -.219E-13 0.115E-13   -.162E+00 -.162E+00 0.747E+01
 
 
 POSITION                                       TOTAL-FORCE (eV/Angst)
 -----------------------------------------------------------------------------------
      2.23656      5.96130      6.02873        -0.839411      0.903385     -0.593761
      5.96130      2.23656      6.02873         0.903385     -0.839411     -0.593761
     10.86110     10.86110     10.80585         0.074668      0.074668     -0.108762
      8.27634      8.27634     10.80605        -0.078798     -0.078798     -0.136287
      5.54231      8.12565      2.79806        -0.596776      0.661311     -0.086574
      8.19607      5.47166      8.16827        -0.057003      0.035269      0.311536
      8.12565      5.54231      2.79806         0.661311     -0.596776     -0.086574
      5.47166      8.19607      8.16827         0.035269     -0.057003      0.311536
      2.79021      2.79021      5.56504        -0.116483     -0.116483     -0.066914
      5.40821      5.40821      5.56487         0.113955      0.113955     -0.065000
      4.09910      4.09910      1.36656         0.000017      0.000017     -0.349514
      1.44973      4.07284      4.09546         0.470439      0.048502      0.488402
      4.12529      6.74842      4.09528        -0.093497     -0.438036      0.513343
      4.07284      1.44973      4.09546         0.048502      0.470439      0.488402
      6.74842      4.12529      4.09528        -0.438036     -0.093497      0.513343
      4.09922      4.09922      7.07513        -0.069010     -0.069010     -0.406045
      6.83384      6.83384      6.80129        -0.018534     -0.018534     -0.133372
 -----------------------------------------------------------------------------------
    total drift:                                0.028148      0.028122     -0.031107


--------------------------------------------------------------------------------------------------------



  FREE ENERGIE OF THE ION-ELECTRON SYSTEM (eV)
  ---------------------------------------------------
  free  energy   TOTEN  =      -149.51821347 eV

  energy  without entropy=     -149.51821347  energy(sigma->0) =     -149.51821347
 


--------------------------------------------------------------------------------------------------------


    POTLOK:  cpu time      0.2004: real time      0.2011


--------------------------------------------------------------------------------------------------------


 writing wavefunctions
     LOOP+:  cpu time    705.9472: real time    707.9898
    4ORBIT:  cpu time      0.0000: real time      0.0000

 total amount of memory used by VASP MPI-rank0   181345. kBytes
=======================================================================

   base      :      30000. kBytes
   nonl-proj :       1277. kBytes
   fftplans  :        558. kBytes
   grid      :       2897. kBytes
   one-center:        132. kBytes
   HF        :         64. kBytes
   nonlr-proj:       8505. kBytes
   wavefun   :        156. kBytes
   fock_wrk  :     137756. kBytes
 
  
  
 General timing and accounting informations for this job:
 ========================================================
  
                  Total CPU time used (sec):      714.208
                            User time (sec):      392.423
                          System time (sec):      321.785
                         Elapsed time (sec):      716.567
  
                   Maximum memory used (kb):      497028.
                   Average memory used (kb):          N/A
  
                          Minor page faults:      4489790
                          Major page faults:            0
                 Voluntary context switches:         1778
